compn,pKa,correct name,reference,smiles,smarts,inchi,inchiKey
39diaminoacridine_cation->neut,11.1,"3,9-diaminoacridine",10.1002/9780470186596,['[H]c1c([H])c([H])c2c(N([H])[H])c3c([H])c([H])c(N([H])[H])c([H])c3nc2c1[H]'],['[#7]1:[#6]2:[#6](:[#6](-[#7](-[H])-[H]):[#6]3:[#6]:1:[#6](:[#6](:[#6](:[#6]:3-[H])-[H])-[H])-[H]):[#6](:[#6](:[#6](-[#7](-[H])-[H]):[#6]:2-[H])-[H])-[H]'],"['InChI=1S/C13H11N3/c14-8-5-6-10-12(7-8)16-11-4-2-1-3-9(11)13(10)15/h1-7H,14H2,(H2,15,16)']",['AMOPBNMABDFREG-UHFFFAOYSA-N']
45diaminoacridine_cation->neut,4.07,"4,5-diaminoacridine","A. Albert, J. Chem. Soc. 1965, 4653",['[H]c1c([H])c([H])c2c([H])c3c([H])c([H])c([H])c(N([H])[H])c3nc2c1N([H])[H]'],['[#7]1:[#6]2:[#6](:[#6](:[#6]3:[#6]:1:[#6](-[#7](-[H])-[H]):[#6](:[#6](:[#6]:3-[H])-[H])-[H])-[H]):[#6](:[#6](:[#6](:[#6]:2-[#7](-[H])-[H])-[H])-[H])-[H]'],"['InChI=1S/C13H11N3/c14-10-5-1-3-8-7-9-4-2-6-11(15)13(9)16-12(8)10/h1-7H,14-15H2']",['URHUZZRZASOLKY-UHFFFAOYSA-N']
9methylacridine_cation->neut,5.6,9-methylacridine,10.1002/9780470186596,['[H]c1c([H])c([H])c2c(C([H])([H])[H])c3c([H])c([H])c([H])c([H])c3nc2c1[H]'],['[#7]1:[#6]2:[#6](:[#6](:[#6]3:[#6]:1:[#6](:[#6](:[#6](:[#6]:3-[H])-[H])-[H])-[H])-[#6@@](-[H])(-[H])-[H]):[#6](:[#6](:[#6](:[#6]:2-[H])-[H])-[H])-[H]'],"['InChI=1S/C14H11N/c1-10-11-6-2-4-8-13(11)15-14-9-5-3-7-12(10)14/h2-9H,1H3']",['FLDRLXJNISEWNZ-UHFFFAOYSA-N']
4methylacridine_cation->neut,5.4,4-methylacridine,10.1002/9780470186596,['[H]c1c([H])c([H])c2c([H])c3c([H])c([H])c([H])c(C([H])([H])[H])c3nc2c1[H]'],['[#7]1:[#6]2:[#6](:[#6](:[#6]3:[#6]:1:[#6](:[#6](:[#6](:[#6]:3-[H])-[H])-[H])-[H])-[H]):[#6](:[#6](:[#6](:[#6]:2-[#6@@](-[H])(-[H])-[H])-[H])-[H])-[H]'],"['InChI=1S/C14H11N/c1-10-5-4-7-12-9-11-6-2-3-8-13(11)15-14(10)12/h2-9H,1H3']",['SKLZCRNUJKGGRW-UHFFFAOYSA-N']
2methylacridine_cation->neut,5.5,2-methylacridine,10.1002/9780470186596,['[H]c1c([H])c([H])c2c([H])c3c([H])c(C([H])([H])[H])c([H])c([H])c3nc2c1[H]'],['[#7]1:[#6]2:[#6](:[#6](:[#6]3:[#6]:1:[#6](:[#6](:[#6](:[#6]:3-[H])-[H])-[H])-[H])-[H]):[#6](:[#6](:[#6](:[#6]:2-[H])-[H])-[#6@@](-[H])(-[H])-[H])-[H]'],"['InChI=1S/C14H11N/c1-10-6-7-14-12(8-10)9-11-4-2-3-5-13(11)15-14/h2-9H,1H3']",['HVZWBVZEZZJOKQ-UHFFFAOYSA-N']
pyridine2sulfonic_neut->an,1.75,pyiridine-2-sulfonic acid,10.1002/9780470186695,['[H]c1c([H])c([H])[n+]([H])c(S(=O)(=O)[O-])c1[H]'],['[#8]=[#16@](=[#8])(-[#8-])-[#6]1:[#7+](:[#6](:[#6](:[#6](:[#6]:1-[H])-[H])-[H])-[H])-[H]'],"['InChI=1S/C5H5NO3S/c7-10(8,9)5-3-1-2-4-6-5/h1-4H,(H,7,8,9)']",['KZVLNAGYSAKYMG-UHFFFAOYSA-N']
pyridine3sulfonic_neut->an,3.22,pyiridine-3-sulfonic acid,10.1002/9780470186695,['[H]c1c([H])c([H])[n+]([H])c([H])c1S(=O)(=O)[O-]'],['[#8]=[#16@](=[#8])(-[#8-])-[#6]1:[#6](:[#6](:[#6](:[#7+](:[#6]:1-[H])-[H])-[H])-[H])-[H]'],"['InChI=1S/C5H5NO3S/c7-10(8,9)5-2-1-3-6-4-5/h1-4H,(H,7,8,9)']",['DVECLMOWYVDJRM-UHFFFAOYSA-N']
pyridine4sulfonic_neut->an,3.44,pyiridine-4-sulfonic acid,10.1002/9780470186695,['[H]c1c(S(=O)(=O)[O-])c([H])c([H])[n+]([H])c1[H]'],['[#8]=[#16@](=[#8])(-[#8-])-[#6]1:[#6](:[#6](:[#7+](:[#6](:[#6]:1-[H])-[H])-[H])-[H])-[H]'],"['InChI=1S/C5H5NO3S/c7-10(8,9)5-1-3-6-4-2-5/h1-4H,(H,7,8,9)']",['PTWLOSARXIJRRJ-UHFFFAOYSA-N']
26lutidine3sulfonic_neut->an,4.89,"2,6-lutidine-3-sulfonic acid",10.1002/9780470186695,['[H]c1c([H])c(C([H])([H])[H])[n+]([H])c(C([H])([H])[H])c1S(=O)(=O)[O-]'],['[#8]=[#16@](=[#8])(-[#8-])-[#6]1:[#6](:[#6](:[#6](:[#7+](:[#6]:1-[#6@@](-[H])(-[H])-[H])-[H])-[#6@@](-[H])(-[H])-[H])-[H])-[H]'],"['InChI=1S/C7H9NO3S/c1-5-3-4-7(6(2)8-5)12(9,10)11/h3-4H,1-2H3,(H,9,10,11)']",['BLFGITBDEIUSLI-UHFFFAOYSA-N']
26lutidine4sulfonic_neut->an,5.09,2.6-lutidine-4-sulfonic acid,10.1002/9780470186695,['[H]c1c(S(=O)(=O)[O-])c([H])c(C([H])([H])[H])[n+]([H])c1C([H])([H])[H]'],['[#8]=[#16@](=[#8])(-[#8-])-[#6]1:[#6](:[#6](:[#7+](:[#6](:[#6]:1-[H])-[#6@@](-[H])(-[H])-[H])-[H])-[#6@@](-[H])(-[H])-[H])-[H]'],"['InChI=1S/C7H9NO3S/c1-5-3-7(12(9,10)11)4-6(2)8-5/h3-4H,1-2H3,(H,9,10,11)']",['BWNFBXMNEZOLLR-UHFFFAOYSA-N']
2methyl6azauracil_neut->an,6.99,2-methyl-6-aza-uracil,10.1002/9780470187050,['[H]c1nn(C([H])([H])[H])c(=O)n([H])c1=O'],['[#8]=[#6]1:[#7](:[#6](=[#8]):[#6](:[#7]:[#7]:1-[#6@@](-[H])(-[H])-[H])-[H])-[H]'],"['InChI=1S/C4H5N3O2/c1-7-4(9)6-3(8)2-5-7/h2H,1H3,(H,6,8,9)']",['UFBYAWNYMSDOMX-UHFFFAOYSA-N']
emimycin_neut->an,6.2,emimycin,10.1002/9780470187173,"['[H]Oc1nc([H])c([H])[n+]([O-])c1[H]', '[H]c1c([H])[n+]([O-])c([H])c(=O)n1[H]']","['[#8](-[#6]1:[#7]:[#6](:[#6](:[#7+](-[#8-]):[#6]:1-[H])-[H])-[H])-[H]', '[#8]=[#6]1:[#7](:[#6](:[#6](:[#7+](-[#8-]):[#6]:1-[H])-[H])-[H])-[H]']","['InChI=1S/C4H4N2O2/c7-4-3-6(8)2-1-5-4/h1-3H,(H,5,7)']",['PJILVKTWPIWODW-UHFFFAOYSA-N']
23diaminopyrazine_cation->neut,4.88,"2,3-diaminopyrazine",10.1002/9780470187173,['[H]c1nc(N([H])[H])c(N([H])[H])nc1[H]'],['[#7]1:[#6](-[#7](-[H])-[H]):[#6](:[#7]:[#6](:[#6]:1-[H])-[H])-[#7](-[H])-[H]'],"['InChI=1S/C4H6N4/c5-3-4(6)8-2-1-7-3/h1-2H,(H2,5,7)(H2,6,8)']",['CAFSXVAFGILCCI-UHFFFAOYSA-N']
23diaminopyrazine_2cation->cation,0.76,"2,3-diaminopyrazine",10.1002/9780470187173,['[H]c1nc(N([H])[H])c(N([H])[H])nc1[H]'],['[#7]1:[#6](-[#7](-[H])-[H]):[#6](:[#7]:[#6](:[#6]:1-[H])-[H])-[#7](-[H])-[H]'],"['InChI=1S/C4H6N4/c5-3-4(6)8-2-1-7-3/h1-2H,(H2,5,7)(H2,6,8)']",['CAFSXVAFGILCCI-UHFFFAOYSA-N']
27dimethoxy18dimorpholinonaphtalene_cation->neut,13,"2,7-dimethoxy-1,8-dimorpholinonaphtalene",10.1039/P29870000243 ,['[H]c1c(OC([H])([H])[H])c(N2C([H])([H])C([H])([H])OC([H])([H])C2([H])[H])c2c(N3C([H])([H])C([H])([H])OC([H])([H])C3([H])[H])c(OC([H])([H])[H])c([H])c([H])c2c1[H]'],['[#8]1-[#6@](-[#6@](-[#7](-[#6]2:[#6]3:[#6](-[#7]4-[#6@@](-[#6@@](-[#8]-[#6@](-[#6@]-4(-[H])-[H])(-[H])-[H])(-[H])-[H])(-[H])-[H]):[#6](-[#8]-[#6@](-[H])(-[H])-[H]):[#6](:[#6](:[#6]:3:[#6](:[#6](:[#6]:2-[#8]-[#6@](-[H])(-[H])-[H])-[H])-[H])-[H])-[H])-[#6@](-[#6@@]-1(-[H])-[H])(-[H])-[H])(-[H])-[H])(-[H])-[H]'],"['InChI=1S/C20H26N2O4/c1-23-16-5-3-15-4-6-17(24-2)20(22-9-13-26-14-10-22)18(15)19(16)21-7-11-25-12-8-21/h3-6H,7-14H2,1-2H3']",['HSSNPSPGCWCHFV-UHFFFAOYSA-N']
18dimorpholinonaphtalene_cation->neut,7.5,"1,8-dimorpholinonaphtalene",10.1039/P29870000243 ,['[H]c1c([H])c(N2C([H])([H])C([H])([H])OC([H])([H])C2([H])[H])c2c(N3C([H])([H])C([H])([H])OC([H])([H])C3([H])[H])c([H])c([H])c([H])c2c1[H]'],['[#8]1-[#6@](-[#6@@](-[#7](-[#6]2:[#6]3:[#6](-[#7]4-[#6@](-[#6@@](-[#8]-[#6@](-[#6@@]-4(-[H])-[H])(-[H])-[H])(-[H])-[H])(-[H])-[H]):[#6](:[#6](:[#6](:[#6]:3:[#6](:[#6](:[#6]:2-[H])-[H])-[H])-[H])-[H])-[H])-[#6@](-[#6@@]-1(-[H])-[H])(-[H])-[H])(-[H])-[H])(-[H])-[H]'],"['InChI=1S/C18H22N2O2/c1-3-15-4-2-6-17(20-9-13-22-14-10-20)18(15)16(5-1)19-7-11-21-12-8-19/h1-6H,7-14H2']",['OSBRVDBQMVSMEM-UHFFFAOYSA-N']
23diamino56dimethylpyrazine_2cation->cation,1.23,"2,3-diamino-5,6-dimethyl-pyrazine",10.1002/9780470187173,['[H]N([H])c1nc(C([H])([H])[H])c(C([H])([H])[H])nc1N([H])[H]'],['[#7]1:[#6](-[#7](-[H])-[H]):[#6](:[#7]:[#6](:[#6]:1-[#6@@](-[H])(-[H])-[H])-[#6@@](-[H])(-[H])-[H])-[#7](-[H])-[H]'],"['InChI=1S/C6H10N4/c1-3-4(2)10-6(8)5(7)9-3/h1-2H3,(H2,7,9)(H2,8,10)']",['PVCTUFKTJGOWKY-UHFFFAOYSA-N']
23diamino56dimethylpyrazine_cation->neut,5.36,"2,3-diamino-5,6-dimethyl-pyrazine",10.1002/9780470187173,['[H]N([H])c1nc(C([H])([H])[H])c(C([H])([H])[H])nc1N([H])[H]'],['[#7]1:[#6](-[#7](-[H])-[H]):[#6](:[#7]:[#6](:[#6]:1-[#6@@](-[H])(-[H])-[H])-[#6@@](-[H])(-[H])-[H])-[#7](-[H])-[H]'],"['InChI=1S/C6H10N4/c1-3-4(2)10-6(8)5(7)9-3/h1-2H3,(H2,7,9)(H2,8,10)']",['PVCTUFKTJGOWKY-UHFFFAOYSA-N']
5amino23dimethylpyrazine_cation->neut,3.89,"5-amino-2,3-dimethylpyrazine",10.1002/9780470187173,['[H]c1nc(C([H])([H])[H])c(C([H])([H])[H])nc1N([H])[H]'],['[#7]1:[#6](:[#6](:[#7]:[#6](:[#6]:1-[H])-[#7](-[H])-[H])-[#6@@](-[H])(-[H])-[H])-[#6@@](-[H])(-[H])-[H]'],"['InChI=1S/C6H9N3/c1-4-5(2)9-6(7)3-8-4/h3H,1-2H3,(H2,7,9)']",['JTPCVJQUFYRJES-UHFFFAOYSA-N']
2amino3cyanopyrazine_cation->neut,-0.43,2-amino-3-cyanopyrazine,10.1002/9780470187173,['[H]c1nc(C#N)c(N([H])[H])nc1[H]'],['[#7]1:[#6](-[#7](-[H])-[H]):[#6](:[#7]:[#6](:[#6]:1-[H])-[H])-[#6]#[#7]'],"['InChI=1S/C5H4N4/c6-3-4-5(7)9-2-1-8-4/h1-2H,(H2,7,9)']",['GPIZLEHIVRHDAW-UHFFFAOYSA-N']
2amino3dimethylaminopyrazine_2cation->cation,-0.24,2-amino-3-dimethylaminopyrazine,10.1002/9780470187173,['[H]c1nc(N([H])[H])c(N(C([H])([H])[H])C([H])([H])[H])nc1[H]'],['[#7]1:[#6](:[#6](:[#7]:[#6](-[#7](-[#6@@](-[H])(-[H])-[H])-[#6@@](-[H])(-[H])-[H]):[#6]:1-[#7](-[H])-[H])-[H])-[H]'],"['InChI=1S/C6H10N4/c1-10(2)6-5(7)8-3-4-9-6/h3-4H,1-2H3,(H2,7,8)']",['WBWGIOMHENHMFZ-UHFFFAOYSA-N']
2amino3dimethylaminopyrazine_cation->neut,4.29,2-amino-3-dimethylaminopyrazine,10.1002/9780470187173,['[H]c1nc(N([H])[H])c(N(C([H])([H])[H])C([H])([H])[H])nc1[H]'],['[#7]1:[#6](:[#6](:[#7]:[#6](-[#7](-[#6@@](-[H])(-[H])-[H])-[#6@@](-[H])(-[H])-[H]):[#6]:1-[#7](-[H])-[H])-[H])-[H]'],"['InChI=1S/C6H10N4/c1-10(2)6-5(7)8-3-4-9-6/h3-4H,1-2H3,(H2,7,8)']",['WBWGIOMHENHMFZ-UHFFFAOYSA-N']
5methyl2thiophenecarboxylic_neut->an,3.7,5-mehtyl-2-thiophenecarboxylic acid,doi.org/10.1039/J29700000867,"['[H]O/C([O-])=C1/[S+]=C(C([H])([H])[H])C([H])=C1[H]', '[H]O/C([O-])=C1\\[S+]=C(C([H])([H])[H])C([H])=C1[H]']","['[#16]1=[#6](-[#6](=[#6](/[#6]-1=[#6](\\[#8]-[H])-[#8-])-[H])-[H])-[#6@@](-[H])(-[H])-[H]', '[#16]1=[#6](-[#6](=[#6](/[#6]-1=[#6](/[#8]-[H])-[#8-])-[H])-[H])-[#6@@](-[H])(-[H])-[H]']","['InChI=1S/C6H6O2S/c1-4-2-3-5(9-4)6(7)8/h2-3H,1H3,(H-,7,8)']",['ONXFGKRILHWUEA-UHFFFAOYSA-N']
4methyl2thiophenecarboxylic_neut->an,3.58,4-mehtyl-2-thiophenecarboxylic acid,doi.org/10.1039/J29700000867,"['[H]O/C([O-])=C1/[S+]=C([H])C(C([H])([H])[H])=C1[H]', '[H]O/C([O-])=C1\\[S+]=C([H])C(C([H])([H])[H])=C1[H]']","['[#16]1=[#6](-[#6](=[#6](/[#6]-1=[#6](\\[#8]-[H])-[#8-])-[H])-[#6@@](-[H])(-[H])-[H])-[H]', '[#16]1=[#6](-[#6](=[#6](/[#6]-1=[#6](/[#8]-[H])-[#8-])-[H])-[#6@@](-[H])(-[H])-[H])-[H]']","['InChI=1S/C6H6O2S/c1-4-2-5(6(7)8)9-3-4/h2-3H,1H3,(H-,7,8)']",['GDXUVDMDSCBODS-UHFFFAOYSA-N']
1278tetradimethylaminonaphtalene_cation->neut,15.8,"1,2,7,8-tetrakis(dimethylamino)-naphtalene",10.1021/acs.joc.2c02212,['[H]c1c(N(C([H])([H])[H])C([H])([H])[H])c(N(C([H])([H])[H])C([H])([H])[H])c2c(N(C([H])([H])[H])C([H])([H])[H])c(N(C([H])([H])[H])C([H])([H])[H])c([H])c([H])c2c1[H]'],['[#6]1(:[#6](:[#6]2:[#6](:[#6](:[#6]:1-[#7](-[#6@@](-[H])(-[H])-[H])-[#6@@](-[H])(-[H])-[H])-[#7](-[#6@@](-[H])(-[H])-[H])-[#6@@](-[H])(-[H])-[H]):[#6](:[#6](:[#6](:[#6]:2-[H])-[H])-[#7](-[#6@@](-[H])(-[H])-[H])-[#6@@](-[H])(-[H])-[H])-[#7](-[#6@@](-[H])(-[H])-[H])-[#6@@](-[H])(-[H])-[H])-[H])-[H]'],"['InChI=1S/C18H28N4/c1-19(2)14-11-9-13-10-12-15(20(3)4)18(22(7)8)16(13)17(14)21(5)6/h9-12H,1-8H3']",['IYDMOUAKIBUUMG-UHFFFAOYSA-N']
TBD_cation->neut,14.5,"1,5,7-Triazabicyclo[4.4.0]dec-5-ene",doi:10.5562/cca2472.,['[H]N1C2=NC([H])([H])C([H])([H])C([H])([H])N2C([H])([H])C([H])([H])C1([H])[H]'],['[#7]12-[#6@](-[#6@](-[#6@@](-[#7](-[#6]-1=[#7]-[#6@](-[#6@@](-[#6@@]-2(-[H])-[H])(-[H])-[H])(-[H])-[H])-[H])(-[H])-[H])(-[H])-[H])(-[H])-[H]'],"['InChI=1S/C7H13N3/c1-3-8-7-9-4-2-6-10(7)5-1/h1-6H2,(H,8,9)']",['FVKFHMNJTHKMRX-UHFFFAOYSA-N']
DBU_cation->neut,13.5,"1,8-Diazabicyclo(5.4.0)undec-7-ene",doi.org/10.1002/ejoc.201900956,['[H]C1([H])N=C2N(C([H])([H])C1([H])[H])C([H])([H])C([H])([H])C([H])([H])C([H])([H])C2([H])[H]'],['[#7]12-[#6@](-[#6@](-[#6@](-[#6@](-[#6@](-[#6]-1=[#7]-[#6@](-[#6@@](-[#6@@]-2(-[H])-[H])(-[H])-[H])(-[H])-[H])(-[H])-[H])(-[H])-[H])(-[H])-[H])(-[H])-[H])(-[H])-[H]'],['InChI=1S/C9H16N2/c1-2-5-9-10-6-4-8-11(9)7-3-1/h1-8H2'],['GQHTUMJGOHRCHB-UHFFFAOYSA-N']
MTBD_cation->neut,13,"1-methyl-1,5,7-Triazabicyclo[4.4.0]dec-5-ene",http://dx.doi.org/10.5562/cca2472,['[H]C([H])([H])N1C2=NC([H])([H])C([H])([H])C([H])([H])N2C([H])([H])C([H])([H])C1([H])[H]'],['[#7]12-[#6@](-[#6@](-[#6@@](-[#7](-[#6]-1=[#7]-[#6@](-[#6@@](-[#6@@]-2(-[H])-[H])(-[H])-[H])(-[H])-[H])-[#6@@](-[H])(-[H])-[H])(-[H])-[H])(-[H])-[H])(-[H])-[H]'],"['InChI=1S/C8H15N3/c1-10-5-3-7-11-6-2-4-9-8(10)11/h2-7H2,1H3']",['OEBXWWBYZJNKRK-UHFFFAOYSA-N']
fluoradene_neut->an,11.1,fluoradene,10.1002/poc.2946,['[H]c1c([H])c([H])c2c(c1[H])-c1c([H])c([H])c([H])c3c1C2([H])c1c([H])c([H])c([H])c([H])c1-3'],['[#6]12-[#6@]3(-[#6]4:[#6](-[#6]:1:[#6](:[#6](:[#6](:[#6]:2-[#6]1:[#6]-3:[#6](:[#6](:[#6](:[#6]:1-[H])-[H])-[H])-[H])-[H])-[H])-[H]):[#6](:[#6](:[#6](:[#6]:4-[H])-[H])-[H])-[H])-[H]'],"['InChI=1S/C19H12/c1-3-8-14-12(6-1)16-10-5-11-17-13-7-2-4-9-15(13)18(14)19(16)17/h1-11,18H']",['HQJPYLIAWVSUHC-UHFFFAOYSA-N']
isoxazolidine_cation->neut,5.05,isoxazolidine,10.1002/9780470187357,['[H]N1OC([H])([H])C([H])([H])C1([H])[H]'],['[#8]1-[#7](-[#6@@](-[#6@](-[#6@@]-1(-[H])-[H])(-[H])-[H])(-[H])-[H])-[H]'],"['InChI=1S/C3H7NO/c1-2-4-5-3-1/h4H,1-3H2']",['CIISBYKBBMFLEZ-UHFFFAOYSA-N']
isoxazolidine5carboxylic_neut->an,4.77,isoxazolidine-5-carboxylic,10.1002/9780470187357,"['[H]OC(=O)[C@@]1([H])ON([H])C([H])([H])C1([H])[H]', '[H]C1([H])C([H])([H])[N+]([H])([H])O[C@]1([H])C(=O)[O-]']","['[#8]1-[#7](-[#6@@](-[#6@](-[#6@]-1(-[#6](-[#8]-[H])=[#8])-[H])(-[H])-[H])(-[H])-[H])-[H]', '[#8]1-[#7](-[#6@@](-[#6@](-[#6@]-1(-[#6](=[#8])-[#8]-[H])-[H])(-[H])-[H])(-[H])-[H])-[H]', '[#8]1-[#7@+](-[#6@@](-[#6@](-[#6@]-1(-[#6](=[#8])-[#8-])-[H])(-[H])-[H])(-[H])-[H])(-[H])-[H]']","['InChI=1S/C4H7NO3/c6-4(7)3-1-2-5-8-3/h3,5H,1-2H2,(H,6,7)/t3-/m0/s1']",['AHKFLJODSRVDLO-VKHMYHEASA-N']
isoxazolidine5carboxylic_cation->neut,2.18,isoxazolidine-5-carboxylic,10.1002/9780470187357,"['[H]OC(=O)[C@@]1([H])ON([H])C([H])([H])C1([H])[H]', '[H]C1([H])C([H])([H])[N+]([H])([H])O[C@]1([H])C(=O)[O-]']","['[#8]1-[#7](-[#6@@](-[#6@](-[#6@]-1(-[#6](-[#8]-[H])=[#8])-[H])(-[H])-[H])(-[H])-[H])-[H]', '[#8]1-[#7](-[#6@@](-[#6@](-[#6@]-1(-[#6](=[#8])-[#8]-[H])-[H])(-[H])-[H])(-[H])-[H])-[H]', '[#8]1-[#7@+](-[#6@@](-[#6@](-[#6@]-1(-[#6](=[#8])-[#8-])-[H])(-[H])-[H])(-[H])-[H])(-[H])-[H]']","['InChI=1S/C4H7NO3/c6-4(7)3-1-2-5-8-3/h3,5H,1-2H2,(H,6,7)/t3-/m0/s1']",['AHKFLJODSRVDLO-VKHMYHEASA-N']
35dimethylisoxazole_cation->neut,-1.26,"3,5-dimethylisoxazoline",10.1039/P29740000399,['[H]c1c(C([H])([H])[H])noc1C([H])([H])[H]'],['[#8]1:[#7]:[#6](:[#6](:[#6]:1-[#6@@](-[H])(-[H])-[H])-[H])-[#6@@](-[H])(-[H])-[H]'],"['InChI=1S/C5H7NO/c1-4-3-5(2)7-6-4/h3H,1-2H3']",['FICAQKBMCKEFDI-UHFFFAOYSA-N']
5methylisoxazole_cation->neut,-1.61,5-methylisoxazole,10.1039/P29740000399,['[H]c1noc(C([H])([H])[H])c1[H]'],['[#8]1:[#7]:[#6](:[#6](:[#6]:1-[#6@@](-[H])(-[H])-[H])-[H])-[H]'],"['InChI=1S/C4H5NO/c1-4-2-3-5-6-4/h2-3H,1H3']",['AGQOIYCTCOEHGR-UHFFFAOYSA-N']
3methylisoxazole_cation->neut,-1.22,3-methylisoxazole,10.1039/P29740000399,['[H]c1onc(C([H])([H])[H])c1[H]'],['[#8]1:[#7]:[#6](:[#6](:[#6]:1-[H])-[H])-[#6@@](-[H])(-[H])-[H]'],"['InChI=1S/C4H5NO/c1-4-2-3-6-5-4/h2-3H,1H3']",['CUMCMYMKECWGHO-UHFFFAOYSA-N']
3methylisothiazole_cation->neut,0.88,3-methyiisothiazole,10.1039/P29740000399,['[H]c1snc(C([H])([H])[H])c1[H]'],['[#16]1:[#7]:[#6](:[#6](:[#6]:1-[H])-[H])-[#6@@](-[H])(-[H])-[H]'],"['InChI=1S/C4H5NS/c1-4-2-3-6-5-4/h2-3H,1H3']",['WOTIUKDGJBXFLG-UHFFFAOYSA-N']
5methylisothiazole_cation->neut,0.42,5-methyiisothiazole,10.1039/P29740000399,['[H]c1nsc(C([H])([H])[H])c1[H]'],['[#16]1:[#7]:[#6](:[#6](:[#6]:1-[#6@@](-[H])(-[H])-[H])-[H])-[H]'],"['InChI=1S/C4H5NS/c1-4-2-3-5-6-4/h2-3H,1H3']",['LBBKWEDRPDGXPM-UHFFFAOYSA-N']
35dimethylisothiazole_cation->neut,1.52,"3,5-dimethylisothiazole",10.1039/P29740000399,['[H]c1c(C([H])([H])[H])nsc1C([H])([H])[H]'],['[#16]1:[#7]:[#6](:[#6](:[#6]:1-[#6@@](-[H])(-[H])-[H])-[H])-[#6@@](-[H])(-[H])-[H]'],"['InChI=1S/C5H7NS/c1-4-3-5(2)7-6-4/h3H,1-2H3']",['BAEACXLWSZGCAZ-UHFFFAOYSA-N']
245trimethyl12oxazol32Hone_cation->neut,-1.36,"2,4,5-trimethyl-1,2-oxazol-3(2H)-one",10.1002/9780470187357,['[H]C([H])([H])c1on(C([H])([H])[H])c(=O)c1C([H])([H])[H]'],['[#8]1:[#7](:[#6](=[#8]):[#6](:[#6]:1-[#6@](-[H])(-[H])-[H])-[#6@](-[H])(-[H])-[H])-[#6@](-[H])(-[H])-[H]'],['InChI=1S/C6H9NO2/c1-4-5(2)9-7(3)6(4)8/h1-3H3'],['OUOWGXOKJZRCFW-UHFFFAOYSA-N']
15naphtyridine_cation->neut,3.05,"1,5-naphtyridine",10.1002/9780470181164,['[H]c1nc2c([H])c([H])c([H])nc2c([H])c1[H]'],['[#7]1:[#6]2:[#6](:[#7]:[#6](:[#6](:[#6]:2-[H])-[H])-[H]):[#6](:[#6](:[#6]:1-[H])-[H])-[H]'],['InChI=1S/C8H6N2/c1-3-7-8(9-5-1)4-2-6-10-7/h1-6H'],['VMLKTERJLVWEJJ-UHFFFAOYSA-N']
pempidine_cation->neut,11.25,pempidine,doi:10.1021/ja01577a031,['[H]C([H])([H])N1C(C([H])([H])[H])(C([H])([H])[H])C([H])([H])C([H])([H])C([H])([H])C1(C([H])([H])[H])C([H])([H])[H]'],['[#7]1(-[#6@](-[#6@](-[#6@@](-[#6@@](-[#6@@]-1(-[#6@@](-[H])(-[H])-[H])-[#6@@](-[H])(-[H])-[H])(-[H])-[H])(-[H])-[H])(-[H])-[H])(-[#6@@](-[H])(-[H])-[H])-[#6@@](-[H])(-[H])-[H])-[#6@](-[H])(-[H])-[H]'],"['InChI=1S/C10H21N/c1-9(2)7-6-8-10(3,4)11(9)5/h6-8H2,1-5H3']",['XULIXFLCVXWHRF-UHFFFAOYSA-N']
tetramethylpiperidine_cation->neut,11.24,"2,2,6,6,-tetramethylpiperidine",doi:10.1021/ja01577a031,['[H]N1C(C([H])([H])[H])(C([H])([H])[H])C([H])([H])C([H])([H])C([H])([H])C1(C([H])([H])[H])C([H])([H])[H]'],['[#7]1(-[#6@](-[#6@](-[#6@@](-[#6@@](-[#6@@]-1(-[#6@@](-[H])(-[H])-[H])-[#6@@](-[H])(-[H])-[H])(-[H])-[H])(-[H])-[H])(-[H])-[H])(-[#6@@](-[H])(-[H])-[H])-[#6@@](-[H])(-[H])-[H])-[H]'],"['InChI=1S/C9H19N/c1-8(2)6-5-7-9(3,4)10-8/h10H,5-7H2,1-4H3']",['RKMGAJGJIURJSJ-UHFFFAOYSA-N']
126trimethylpiperidine_cation->neut,10.21,"1,2,6-trimethylpiperidine",doi:10.1021/ja01577a031,['[H]C([H])([H])N1[C@@]([H])(C([H])([H])[H])C([H])([H])C([H])([H])C([H])([H])[C@@]1([H])C([H])([H])[H]'],['[#7]1(-[#6@](-[#6@](-[#6@@](-[#6@@](-[#6@]-1(-[#6@@](-[H])(-[H])-[H])-[H])(-[H])-[H])(-[H])-[H])(-[H])-[H])(-[#6@@](-[H])(-[H])-[H])-[H])-[#6@](-[H])(-[H])-[H]'],"['InChI=1S/C8H17N/c1-7-5-4-6-8(2)9(7)3/h7-8H,4-6H2,1-3H3/t7-,8+']",['COSHJOZVKGAYBP-OCAPTIKFSA-N']
1224tetramethylpiperidine_cation->neut,10.24,"1,2,2,4,-tetramethylpiperidine",doi:10.1021/ja01577a031,['[H]C([H])([H])N1C([H])([H])C([H])([H])[C@]([H])(C([H])([H])[H])C([H])([H])C1(C([H])([H])[H])C([H])([H])[H]'],['[#7]1(-[#6@](-[#6@](-[#6@@](-[#6@@](-[#6@@]-1(-[H])-[H])(-[H])-[H])(-[H])-[#6@@](-[H])(-[H])-[H])(-[H])-[H])(-[#6@@](-[H])(-[H])-[H])-[#6@@](-[H])(-[H])-[H])-[#6@@](-[H])(-[H])-[H]'],"['InChI=1S/C9H19N/c1-8-5-6-10(4)9(2,3)7-8/h8H,5-7H2,1-4H3/t8-/m0/s1']",['BKZJRKNFIWYMBC-QMMMGPOBSA-N']
4nitrophenylmalononitrile_neut->an,2.3,4-nitropheyl-malononitrile,#10.1002/poc.2946,['[H]c1c([H])c(C([H])(C#N)C#N)c([H])c([H])c1[N+](=O)[O-]'],['[#8]=[#7+](-[#8-])-[#6]1:[#6](:[#6](:[#6](-[#6@@](-[#6]#[#7])(-[#6]#[#7])-[H]):[#6](:[#6]:1-[H])-[H])-[H])-[H]'],"['InChI=1S/C9H5N3O2/c10-5-8(6-11)7-1-3-9(4-2-7)12(13)14/h1-4,8H']",['HXEPLLFRQAVQQJ-UHFFFAOYSA-N']
meldrumsacid_neut->an,4.97,"2,2-Dimethyl-1,3-dioxane-4,6-dione",http://actachemscand.org/pdf/acta_vol_23_p3003-3010.pdf,"['[H]OC1=C([H])C(=O)OC(C([H])([H])[H])(C([H])([H])[H])O1', '[H]C1([H])C(=O)OC(C([H])([H])[H])(C([H])([H])[H])OC1=O']","['[#8]1-[#6@@](-[#8]-[#6](-[#8]-[H])=[#6](-[#6]-1=[#8])-[H])(-[#6@@](-[H])(-[H])-[H])-[#6@@](-[H])(-[H])-[H]', '[#8]1-[#6@@](-[#8]-[#6](=[#8])-[#6@](-[#6]-1=[#8])(-[H])-[H])(-[#6@@](-[H])(-[H])-[H])-[#6@@](-[H])(-[H])-[H]']","['InChI=1S/C6H8O4/c1-6(2)9-4(7)3-5(8)10-6/h3,7H,1-2H3', 'InChI=1S/C6H8O4/c1-6(2)9-4(7)3-5(8)10-6/h3H2,1-2H3']","['ANUQJJACQHAFER-UHFFFAOYSA-N', 'GXHFUVWIGNLZSC-UHFFFAOYSA-N']"
dimedone_neut->an,5.25,"5,5-Dimethylcyclohexane-1,3-dione",10.1016/j.theochem.2007.04.037,"['[H]C1([H])C(=O)C([H])([H])C(C([H])([H])[H])(C([H])([H])[H])C([H])([H])C1=O', '[H]OC1=C([H])C(=O)C([H])([H])C(C([H])([H])[H])(C([H])([H])[H])C1([H])[H]']","['[#8]=[#6]1-[#6@@](-[#6@@](-[#6@](-[#6](=[#8])-[#6@]-1(-[H])-[H])(-[H])-[H])(-[#6@@](-[H])(-[H])-[H])-[#6@@](-[H])(-[H])-[H])(-[H])-[H]', '[#8](-[#6]1-[#6@@](-[#6@@](-[#6@](-[#6](=[#8])-[#6]=1-[H])(-[H])-[H])(-[#6@@](-[H])(-[H])-[H])-[#6@@](-[H])(-[H])-[H])(-[H])-[H])-[H]']","['InChI=1S/C8H12O2/c1-8(2)4-6(9)3-7(10)5-8/h3-5H2,1-2H3', 'InChI=1S/C8H12O2/c1-8(2)4-6(9)3-7(10)5-8/h3,9H,4-5H2,1-2H3']","['BADXJIPKFRBFOT-UHFFFAOYSA-N', 'PQZVNKWTNLBLHJ-UHFFFAOYSA-N']"