compn,pKa,correct name,reference,smiles,smarts,inchi,inchiKey
trimethylmethanetricarboxylate_neut->an,5.8,trimethylmethanetricarboxilate,10.2478/s11532-013-0311-7,['[H]C([H])([H])OC(=O)C([H])(C(=O)OC([H])([H])[H])C(=O)OC([H])([H])[H]'],['[#8](-[#6](=[#8])-[#6@](-[#6](-[#8]-[#6@](-[H])(-[H])-[H])=[#8])(-[#6](-[#8]-[#6@](-[H])(-[H])-[H])=[#8])-[H])-[#6@](-[H])(-[H])-[H]'],"['InChI=1S/C7H10O6/c1-11-5(8)4(6(9)12-2)7(10)13-3/h4H,1-3H3']",['BNOIMFITGLLJTH-UHFFFAOYSA-N']
nitropropene_neut->an,5.2,nitropropene,10.2478/s11532-013-0311-7,"['[H]C([H])=C([H])C([H])([H])[N+](=O)[O-]', '[H]/C(=C(/[H])C([H])([H])[H])[N+](=O)[O-]']","['[#7+](-[#6@](-[#6](=[#6](-[H])-[H])-[H])(-[H])-[H])(=[#8])-[#8-]', '[#6](\\[#7+](=[#8])-[#8-])(=[#6](/[#6@@](-[H])(-[H])-[H])-[H])-[H]']","['InChI=1S/C3H5NO2/c1-2-3-4(5)6/h2H,1,3H2', 'InChI=1S/C3H5NO2/c1-2-3-4(5)6/h2-3H,1H3/b3-2+']","['VLISOFDTMSFZPP-UHFFFAOYSA-N', 'RIHXMHKNTLBIPJ-NSCUHMNNSA-N']"
bismethylsulphonylmethane_neut->an,12.6,bismethylsulphonylmethane,10.2478/s11532-013-0311-7,['[H]C([H])([H])S(=O)(=O)C([H])([H])S(=O)(=O)C([H])([H])[H]'],['[#8]=[#16@](=[#8])(-[#6@@](-[#16@@](=[#8])(=[#8])-[#6@@](-[H])(-[H])-[H])(-[H])-[H])-[#6@@](-[H])(-[H])-[H]'],"['InChI=1S/C3H8O4S2/c1-8(4,5)3-9(2,6)7/h3H2,1-2H3']",['VDPDRYUUTXEEIE-UHFFFAOYSA-N']
dinitroacetamide_neut->an,1.3,dinitroacetamide,doi:10.1016/j.theochem.2007.04.037,['[H]N([H])C(=O)C([H])([N+](=O)[O-])[N+](=O)[O-]'],['[#6](=[#8])(-[#7](-[H])-[H])-[#6@@](-[#7+](=[#8])-[#8-])(-[#7+](=[#8])-[#8-])-[H]'],"['InChI=1S/C2H3N3O5/c3-1(6)2(4(7)8)5(9)10/h2H,(H2,3,6)']",['WIVBPUMPRZRRRK-UHFFFAOYSA-N']
clavulanic_neut->an,2.7,clavulanic acid,https://www.hpra.ie/img/uploaded/swedocuments/Licence_VPA10774-072-,['[H]OC(=O)[C@@]1([H])/C(=C(\\[H])C([H])([H])O[H])O[C@@]2([H])N1C(=O)C2([H])[H]'],['[#8]1-[#6@]2(-[#7](-[#6@](/[#6]-1=[#6](/[#6@](-[#8]-[H])(-[H])-[H])-[H])(-[#6](-[#8]-[H])=[#8])-[H])-[#6](=[#8])-[#6@@]-2(-[H])-[H])-[H]'],"['InChI=1S/C8H9NO5/c10-2-1-4-7(8(12)13)9-5(11)3-6(9)14-4/h1,6-7,10H,2-3H2,(H,12,13)/b4-1-/t6-,7-/m1/s1']",['HZZVJAQRINQKSD-PBFISZAISA-N']
tristrifluoromethylmethane_neut->an,11,Tris(trifluoromethyl)methane,,['[H]C(C(F)(F)F)(C(F)(F)F)C(F)(F)F'],['[#9]-[#6@](-[#6@](-[#6@](-[#9])(-[#9])-[#9])(-[H])-[#6@](-[#9])(-[#9])-[#9])(-[#9])-[#9]'],"['InChI=1S/C4HF9/c5-2(6,7)1(3(8,9)10)4(11,12)13/h1H']",['IMRLDNHHTCXOOR-UHFFFAOYSA-N']
malonaldehyde_neut->an,5,malonaldehyde,,"['[H]C(=O)C([H])([H])C([H])=O', '[H]O/C([H])=C(/[H])C([H])=O']","['[#8]=[#6](-[#6@@](-[#6](=[#8])-[H])(-[H])-[H])-[H]', '[#8](/[#6](=[#6](\\[#6](=[#8])-[H])-[H])-[H])-[H]']","['InChI=1S/C3H4O2/c4-2-1-3-5/h2-3H,1H2', 'InChI=1S/C3H4O2/c4-2-1-3-5/h1-4H/b2-1-']","['WSMYVTOQOOLQHP-UHFFFAOYSA-N', 'GMSHJLUJOABYOM-UPHRSURJSA-N']"
2indanone_neut->an,12.21,2-indanone,pubs.acs.org/doi/pdf/10.1021/ja00214a061,"['[H]c1c([H])c([H])c2c(c1[H])C([H])([H])C(=O)C2([H])[H]', '[H]OC1=C([H])c2c([H])c([H])c([H])c([H])c2C1([H])[H]']","['[#6]1(:[#6](:[#6]2:[#6](:[#6](:[#6]:1-[H])-[H])-[#6@](-[#6](-[#6@]-2(-[H])-[H])=[#8])(-[H])-[H])-[H])-[H]', '[#6]1(:[#6](:[#6]2:[#6](:[#6](:[#6]:1-[H])-[H])-[#6@](-[#6](=[#6]-2-[H])-[#8]-[H])(-[H])-[H])-[H])-[H]']","['InChI=1S/C9H8O/c10-9-5-7-3-1-2-4-8(7)6-9/h1-4H,5-6H2', 'InChI=1S/C9H8O/c10-9-5-7-3-1-2-4-8(7)6-9/h1-5,10H,6H2']","['UMJJFEIKYGFCAT-UHFFFAOYSA-N', 'TXEUPGABAVOGIG-UHFFFAOYSA-N']"
2tetralone_neut->an,12.92,2-tetralone,pubs.acs.org/doi/pdf/10.1021/ja00214a061,"['[H]c1c([H])c([H])c2c(c1[H])C([H])([H])C(=O)C([H])([H])C2([H])[H]', '[H]OC1=C([H])c2c([H])c([H])c([H])c([H])c2C([H])([H])C1([H])[H]']","['[#8]=[#6]1-[#6@](-[#6@](-[#6]2:[#6](-[#6@@]-1(-[H])-[H]):[#6](:[#6](:[#6](:[#6]:2-[H])-[H])-[H])-[H])(-[H])-[H])(-[H])-[H]', '[#8](-[#6]1-[#6@](-[#6@](-[#6]2:[#6](-[#6]=1-[H]):[#6](:[#6](:[#6](:[#6]:2-[H])-[H])-[H])-[H])(-[H])-[H])(-[H])-[H])-[H]']","['InChI=1S/C10H10O/c11-10-6-5-8-3-1-2-4-9(8)7-10/h1-4H,5-7H2', 'InChI=1S/C10H10O/c11-10-6-5-8-3-1-2-4-9(8)7-10/h1-4,7,11H,5-6H2']","['KCKZIWSINLBROE-UHFFFAOYSA-N', 'PGHZLLOUKJNUCR-UHFFFAOYSA-N']"
2benzosuberone_neut->an,14.9,2-suberone,pubs.acs.org/doi/pdf/10.1021/ja0161608,"['[H]c1c([H])c([H])c2c(c1[H])C([H])([H])C(=O)C([H])([H])C([H])([H])C2([H])[H]', '[H]OC1=C([H])c2c([H])c([H])c([H])c([H])c2C([H])([H])C([H])([H])C1([H])[H]']","['[#6]1(-[#6@](-[#6]2:[#6](:[#6](:[#6](:[#6](:[#6]:2-[#6@@](-[#6@](-[#6@]-1(-[H])-[H])(-[H])-[H])(-[H])-[H])-[H])-[H])-[H])-[H])(-[H])-[H])=[#8]', '[#6]1(=[#6](-[#6@@](-[#6@@](-[#6@](-[H])(-[H])-[#6]2:[#6]-1:[#6](:[#6](:[#6](:[#6]:2-[H])-[H])-[H])-[H])(-[H])-[H])(-[H])-[H])-[#8]-[H])-[H]']","['InChI=1S/C11H12O/c12-11-7-3-6-9-4-1-2-5-10(9)8-11/h1-2,4-5H,3,6-8H2', 'InChI=1S/C11H12O/c12-11-7-3-6-9-4-1-2-5-10(9)8-11/h1-2,4-5,8,12H,3,6-7H2']","['VDQFEVQCXBWMII-UHFFFAOYSA-N', 'FTXYKBDBFXYINX-UHFFFAOYSA-N']"
2azaspiro33heptane_cation->neut,11.3,"2-aza-spiro-3,3-heptane",10.1002/anie.202311583,['[H]N1C([H])([H])C2(C1([H])[H])C([H])([H])C([H])([H])C2([H])[H]'],['[H]-[#6@@]1(-[#6@@](-[#6@@](-[H])(-[H])-[#6@@]-12-[#6@](-[H])(-[H])-[#7](-[#6@]-2(-[H])-[H])-[H])(-[H])-[H])-[H]'],"['InChI=1S/C6H11N/c1-2-6(3-1)4-7-5-6/h7H,1-5H2']",['QPEJAHMNOVMSOZ-UHFFFAOYSA-N']
1azaspiro33heptane_cation->neut,11.4,"1-aza-spiro-3,3-heptane",10.1002/anie.202311583,['[H]N1C([H])([H])C([H])([H])C12C([H])([H])C([H])([H])C2([H])[H]'],"['[H]-[#6@@]1(-[#6@@](-[#6@@](-[H])(-[H])-[#6@]-12-[#6@@](-[H])(-[H])-[#6@@](-[H])(-[H])-[#7]-2-[H])(-[H])-[H])-[H]', '[H]-[#6@@]1(-[#6@@](-[#6@@](-[H])(-[H])-[#6@@]-12-[#6@](-[#6@](-[H])(-[H])-[#7]-2-[H])(-[H])-[H])(-[H])-[H])-[H]']","['InChI=1S/C6H11N/c1-2-6(3-1)4-5-7-6/h7H,1-5H2']",['YKNUXXRRPRLOBW-UHFFFAOYSA-N']
1methyl1Himidazole2carboxylic_neut->an,6.88,1-methyl-1H-imidazole-2-carboxylic acid,10.1208/ps030210,"['[H]OC(=O)c1nc([H])c([H])n1C([H])([H])[H]', '[H]c1c([H])[n+]([H])c(C(=O)[O-])n1C([H])([H])[H]']","['[#8](-[#6](=[#8])-[#6]1:[#7](:[#6](:[#6](:[#7]:1)-[H])-[H])-[#6@@](-[H])(-[H])-[H])-[H]', '[#8]=[#6](-[#8-])-[#6]1:[#7](:[#6](:[#6](:[#7+]:1-[H])-[H])-[H])-[#6@@](-[H])(-[H])-[H]']","['InChI=1S/C5H6N2O2/c1-7-3-2-6-4(7)5(8)9/h2-3H,1H3,(H,8,9)']",['WLDPWZQYAVZTTP-UHFFFAOYSA-N']
1methyl1Hpyrrole2carboxylic_neut->an,4.54,1-methyl-1H-pyrrole-2-carboxylic acid,10.1208/ps030210,['[H]OC(=O)c1c([H])c([H])c([H])n1C([H])([H])[H]'],['[#8](-[#6](=[#8])-[#6]1:[#7](:[#6](:[#6](:[#6]:1-[H])-[H])-[H])-[#6@@](-[H])(-[H])-[H])-[H]'],"['InChI=1S/C6H7NO2/c1-7-4-2-3-5(7)6(8)9/h2-4H,1H3,(H,8,9)']",['ILAOVOOZLVGAJF-UHFFFAOYSA-N']
13dimethyl1Hpyrazole4carboxylic_neut->an,4.52,"1,3-dimethyl-1H-pyrazole-4-carboxylic acid",10.1208/ps030210,['[H]OC(=O)c1c(C([H])([H])[H])nn(C([H])([H])[H])c1[H]'],['[#8](-[#6](=[#8])-[#6]1:[#6](:[#7]:[#7](:[#6]:1-[H])-[#6@@](-[H])(-[H])-[H])-[#6@@](-[H])(-[H])-[H])-[H]'],"['InChI=1S/C6H8N2O2/c1-4-5(6(9)10)3-8(2)7-4/h3H,1-2H3,(H,9,10)']",['YALJPBXSARRWTA-UHFFFAOYSA-N']
1methyl3trifluoromethyl1Hpyrazole4carboxylic_neut->an,3.79,1-methyl-3-trifluoromethyl-1H-pyrazole-4-carboxylic acid,10.1208/ps030210,['[H]OC(=O)c1c(C(F)(F)F)nn(C([H])([H])[H])c1[H]'],['[#8](-[#6](=[#8])-[#6]1:[#6](:[#7]:[#7](:[#6]:1-[H])-[#6@@](-[H])(-[H])-[H])-[#6@](-[#9])(-[#9])-[#9])-[H]'],"['InChI=1S/C6H5F3N2O2/c1-11-2-3(5(12)13)4(10-11)6(7,8)9/h2H,1H3,(H,12,13)']",['FZNKJQNEJGXCJH-UHFFFAOYSA-N']
1methyl1hpyrazol4ylphosphonic_neut->an,1.84,1-methyl-1H-pyrazol-4yl-phosphonic acid,10.1208/ps030210,"['[H]O[P@](=O)([O-])c1c([H])n(C([H])([H])[H])[n+]([H])c1[H]', '[H]OP(=O)(O[H])c1c([H])nn(C([H])([H])[H])c1[H]']","['[#8](-[#15@](=[#8])(-[#8-])-[#6]1:[#6](:[#7](:[#7+](:[#6]:1-[H])-[H])-[#6@@](-[H])(-[H])-[H])-[H])-[H]', '[#8](-[#15@](-[#8]-[H])(=[#8])-[#6]1:[#6](:[#7](:[#7]:[#6]:1-[H])-[#6@@](-[H])(-[H])-[H])-[H])-[H]']","['InChI=1S/C4H7N2O3P/c1-6-3-4(2-5-6)10(7,8)9/h2-3H,1H3,(H2,7,8,9)']",['GEYVASUCKKIHIC-UHFFFAOYSA-N']
1methyl1hpyrazol4ylphosphonic_an->2an,6.76,1-methyl-1H-pyrazol-4yl-phosphonic acid,10.1208/ps030210,"['[H]O[P@](=O)([O-])c1c([H])n(C([H])([H])[H])[n+]([H])c1[H]', '[H]OP(=O)(O[H])c1c([H])nn(C([H])([H])[H])c1[H]']","['[#8](-[#15@](=[#8])(-[#8-])-[#6]1:[#6](:[#7](:[#7+](:[#6]:1-[H])-[H])-[#6@@](-[H])(-[H])-[H])-[H])-[H]', '[#8](-[#15@](-[#8]-[H])(=[#8])-[#6]1:[#6](:[#7](:[#7]:[#6]:1-[H])-[#6@@](-[H])(-[H])-[H])-[H])-[H]']","['InChI=1S/C4H7N2O3P/c1-6-3-4(2-5-6)10(7,8)9/h2-3H,1H3,(H2,7,8,9)']",['GEYVASUCKKIHIC-UHFFFAOYSA-N']
15dimethyl1hpyrazol4ylphosphonic_neut->an,2.1,"1,5-dimethyl-1H-pyrazol-4yl-phosphonic acid",10.1208/ps030210,['[H]OP(=O)(O[H])c1c([H])nn(C([H])([H])[H])c1C([H])([H])[H]'],['[#8](-[#15@](-[#8]-[H])(=[#8])-[#6]1:[#6](:[#7](:[#7]:[#6]:1-[H])-[#6@@](-[H])(-[H])-[H])-[#6@@](-[H])(-[H])-[H])-[H]'],"['InChI=1S/C5H9N2O3P/c1-4-5(11(8,9)10)3-6-7(4)2/h3H,1-2H3,(H2,8,9,10)']",['PETUXVPSKBRRGB-UHFFFAOYSA-N']
15dimethyl1hpyrazol4ylphosphonic_an->an2,7.15,"1,5-dimethyl-1H-pyrazol-4yl-phosphonic acid",10.1208/ps030210,['[H]OP(=O)(O[H])c1c([H])nn(C([H])([H])[H])c1C([H])([H])[H]'],['[#8](-[#15@](-[#8]-[H])(=[#8])-[#6]1:[#6](:[#7](:[#7]:[#6]:1-[H])-[#6@@](-[H])(-[H])-[H])-[#6@@](-[H])(-[H])-[H])-[H]'],"['InChI=1S/C5H9N2O3P/c1-4-5(11(8,9)10)3-6-7(4)2/h3H,1-2H3,(H2,8,9,10)']",['PETUXVPSKBRRGB-UHFFFAOYSA-N']
2hydroxypyrimidin5ylphosphonic_neut->an,1.52,2-hydroxy-pyrimidin-5yl-phosphonic acid,10.1208/ps030210,"['[H]Oc1nc([H])c(P(=O)(O[H])O[H])c([H])n1', '[H]O[P@](=O)([O-])c1c([H])n([H])c(=O)[n+]([H])c1[H]', '[H]OP(=O)(O[H])c1c([H])nc(=O)n([H])c1[H]']","['[#8](-[#15@](-[#8]-[H])(=[#8])-[#6]1:[#6](-[H]):[#7]:[#6](-[#8]-[H]):[#7]:[#6]:1-[H])-[H]', '[#8](-[#15@](=[#8])(-[#8-])-[#6]1:[#6](-[H]):[#7+](:[#6](=[#8]):[#7](:[#6]:1-[H])-[H])-[H])-[H]', '[#8](-[#15@](-[#8]-[H])(=[#8])-[#6]1:[#6](-[H]):[#7](:[#6](=[#8]):[#7]:[#6]:1-[H])-[H])-[H]']","['InChI=1S/C4H5N2O4P/c7-4-5-1-3(2-6-4)11(8,9)10/h1-2H,(H,5,6,7)(H2,8,9,10)']",['IELVPZVZASUEFU-UHFFFAOYSA-N']
2hydroxypyrimidin5ylphosphonic_an->2an,5.6,2-hydroxy-pyrimidin-5yl-phosphonic acid,10.1208/ps030210,"['[H]Oc1nc([H])c(P(=O)(O[H])O[H])c([H])n1', '[H]O[P@](=O)([O-])c1c([H])n([H])c(=O)[n+]([H])c1[H]', '[H]OP(=O)(O[H])c1c([H])nc(=O)n([H])c1[H]']","['[#8](-[#15@](-[#8]-[H])(=[#8])-[#6]1:[#6](-[H]):[#7]:[#6](-[#8]-[H]):[#7]:[#6]:1-[H])-[H]', '[#8](-[#15@](=[#8])(-[#8-])-[#6]1:[#6](-[H]):[#7+](:[#6](=[#8]):[#7](:[#6]:1-[H])-[H])-[H])-[H]', '[#8](-[#15@](-[#8]-[H])(=[#8])-[#6]1:[#6](-[H]):[#7](:[#6](=[#8]):[#7]:[#6]:1-[H])-[H])-[H]']","['InChI=1S/C4H5N2O4P/c7-4-5-1-3(2-6-4)11(8,9)10/h1-2H,(H,5,6,7)(H2,8,9,10)']",['IELVPZVZASUEFU-UHFFFAOYSA-N']
2hydroxypyrimidin5ylphosphonic_2an->3an,9.24,2-hydroxy-pyrimidin-5yl-phosphonic acid,10.1208/ps030210,"['[H]Oc1nc([H])c(P(=O)(O[H])O[H])c([H])n1', '[H]O[P@](=O)([O-])c1c([H])n([H])c(=O)[n+]([H])c1[H]', '[H]OP(=O)(O[H])c1c([H])nc(=O)n([H])c1[H]']","['[#8](-[#15@](-[#8]-[H])(=[#8])-[#6]1:[#6](-[H]):[#7]:[#6](-[#8]-[H]):[#7]:[#6]:1-[H])-[H]', '[#8](-[#15@](=[#8])(-[#8-])-[#6]1:[#6](-[H]):[#7+](:[#6](=[#8]):[#7](:[#6]:1-[H])-[H])-[H])-[H]', '[#8](-[#15@](-[#8]-[H])(=[#8])-[#6]1:[#6](-[H]):[#7](:[#6](=[#8]):[#7]:[#6]:1-[H])-[H])-[H]']","['InChI=1S/C4H5N2O4P/c7-4-5-1-3(2-6-4)11(8,9)10/h1-2H,(H,5,6,7)(H2,8,9,10)']",['IELVPZVZASUEFU-UHFFFAOYSA-N']
2aminopyrimidin5ylphosphonic_neut->an,2.94,2-aminopyrimidin-5-yl-phosphonic acid,10.1208/ps030210,"['[H]O[P@](=O)([O-])c1c([H])nc(=[N+]([H])[H])n([H])c1[H]', 'O=P(=O)[O-].[H]C1=C=C([H])N([H])C(=[N+]([H])[H])N1[H]', '[H]OP(=O)(O[H])c1c([H])nc(N([H])[H])nc1[H]']","['[#8](-[#15@](=[#8])(-[#8-])-[#6]1:[#6](-[H]):[#7](:[#6](:[#7]:[#6]:1-[H])=[#7+](-[H])-[H])-[H])-[H]', '[#15](=[#8])(=[#8])-[#8-].[#6]1=[#6](-[H])-[#7](-[#6](-[#7](-[#6]=1-[H])-[H])=[#7+](-[H])-[H])-[H]', '[#8](-[#15@](-[#8]-[H])(=[#8])-[#6]1:[#6](-[H]):[#7]:[#6](:[#7]:[#6]:1-[H])-[#7](-[H])-[H])-[H]']","['InChI=1S/C4H6N3O3P/c5-4-6-1-3(2-7-4)11(8,9)10/h1-2H,(H2,5,6,7)(H2,8,9,10)', 'InChI=1S/C4H5N3.HO3P/c5-4-6-2-1-3-7-4;1-4(2)3/h2-3H,(H3,5,6,7);(H,1,2,3)']","['BRJVMHZRQZYAOR-UHFFFAOYSA-N', 'ZDDRLVAPOMCDGH-UHFFFAOYSA-N']"
2aminopyrimidin5ylphosphonic_an->2an,6.15,2-aminopyrimidin-5-yl-phosphonic acid,10.1208/ps030210,"['[H]O[P@](=O)([O-])c1c([H])nc(=[N+]([H])[H])n([H])c1[H]', 'O=P(=O)[O-].[H]C1=C=C([H])N([H])C(=[N+]([H])[H])N1[H]', '[H]OP(=O)(O[H])c1c([H])nc(N([H])[H])nc1[H]']","['[#8](-[#15@](=[#8])(-[#8-])-[#6]1:[#6](-[H]):[#7](:[#6](:[#7]:[#6]:1-[H])=[#7+](-[H])-[H])-[H])-[H]', '[#15](=[#8])(=[#8])-[#8-].[#6]1=[#6](-[H])-[#7](-[#6](-[#7](-[#6]=1-[H])-[H])=[#7+](-[H])-[H])-[H]', '[#8](-[#15@](-[#8]-[H])(=[#8])-[#6]1:[#6](-[H]):[#7]:[#6](:[#7]:[#6]:1-[H])-[#7](-[H])-[H])-[H]']","['InChI=1S/C4H6N3O3P/c5-4-6-1-3(2-7-4)11(8,9)10/h1-2H,(H2,5,6,7)(H2,8,9,10)', 'InChI=1S/C4H5N3.HO3P/c5-4-6-2-1-3-7-4;1-4(2)3/h2-3H,(H3,5,6,7);(H,1,2,3)']","['BRJVMHZRQZYAOR-UHFFFAOYSA-N', 'ZDDRLVAPOMCDGH-UHFFFAOYSA-N']"
trifluoromethylphosphonic_neut->an,1.16,trifluoromethylphosphonic,www.ijceronline.com/papers/Vol9_issue2/G09024253.pdf,['[H]OP(=O)(O[H])C(F)(F)F'],['[#9]-[#6@](-[#15@@](-[#8]-[H])(-[#8]-[H])=[#8])(-[#9])-[#9]'],"['InChI=1S/CH2F3O3P/c2-1(3,4)8(5,6)7/h(H2,5,6,7)']",['XJAAVVLEUZQVNJ-UHFFFAOYSA-N']
trifluoromethylphosphonic_an->2an,3.93,trifluoromethylphosphonic,www.ijceronline.com/papers/Vol9_issue2/G09024253.pdf,['[H]OP(=O)(O[H])C(F)(F)F'],['[#9]-[#6@](-[#15@@](-[#8]-[H])(-[#8]-[H])=[#8])(-[#9])-[#9]'],"['InChI=1S/CH2F3O3P/c2-1(3,4)8(5,6)7/h(H2,5,6,7)']",['XJAAVVLEUZQVNJ-UHFFFAOYSA-N']
thiophene2phosphonic_neut->an ,1.1,thiophene-2-phosphonic acid,doi: 10.1208/ps030210.,['[H]OP([O-])(O[H])=C1[S+]=C([H])C([H])=C1[H]'],['[#16]1=[#6](-[#6](=[#6](-[#6]-1=[#15@@](-[#8]-[H])(-[#8]-[H])-[#8-])-[H])-[H])-[H]'],"['InChI=1S/C4H5O3PS/c5-8(6,7)4-2-1-3-9-4/h1-3H,(H2-,5,6,7)']",['DUEHJCFONFBSQR-UHFFFAOYSA-N']
thiophene2phosphonic_an->2an,6.43,thiophene-2-phosphonic acid,doi: 10.1208/ps030210.,['[H]OP([O-])(O[H])=C1[S+]=C([H])C([H])=C1[H]'],['[#16]1=[#6](-[#6](=[#6](-[#6]-1=[#15@@](-[#8]-[H])(-[#8]-[H])-[#8-])-[H])-[H])-[H]'],"['InChI=1S/C4H5O3PS/c5-8(6,7)4-2-1-3-9-4/h1-3H,(H2-,5,6,7)']",['DUEHJCFONFBSQR-UHFFFAOYSA-N']
trimethylsilanomethylphosphonic_neut->an,3.22,(trimethylsilano)-methyl-phosphonic acid,www.ijceronline.com/papers/Vol9_issue2/G09024253.pdf,['[H]OP(=O)(O[H])C([H])([H])[Si](C([H])([H])[H])(C([H])([H])[H])C([H])([H])[H]'],['[#8](-[#15@@](-[#8]-[H])(=[#8])-[#6@@](-[Si@@](-[#6@@](-[H])(-[H])-[H])(-[#6@@](-[H])(-[H])-[H])-[#6@@](-[H])(-[H])-[H])(-[H])-[H])-[H]'],"['InChI=1S/C4H13O3PSi/c1-9(2,3)4-8(5,6)7/h4H2,1-3H3,(H2,5,6,7)']",['QQTGFPSIUPIFGW-UHFFFAOYSA-N']
trimethylsilanomethylphosphonic_an->2an,8.6,(trimethylsilano)-methyl-phosphonic acid,www.ijceronline.com/papers/Vol9_issue2/G09024253.pdf,['[H]OP(=O)(O[H])C([H])([H])[Si](C([H])([H])[H])(C([H])([H])[H])C([H])([H])[H]'],['[#8](-[#15@@](-[#8]-[H])(=[#8])-[#6@@](-[Si@@](-[#6@@](-[H])(-[H])-[H])(-[#6@@](-[H])(-[H])-[H])-[#6@@](-[H])(-[H])-[H])(-[H])-[H])-[H]'],"['InChI=1S/C4H13O3PSi/c1-9(2,3)4-8(5,6)7/h4H2,1-3H3,(H2,5,6,7)']",['QQTGFPSIUPIFGW-UHFFFAOYSA-N']
5methyl13cyclohexanedione_neut->an,5.08,"5-methyl-1,3-cyclohexanedione",doi.org/10.1038/s42004-020-0264-7,"['[H]OC1=C([H])C(=O)C([H])([H])[C@@]([H])(C([H])([H])[H])C1([H])[H]', '[H]C1([H])C(=O)C([H])([H])C([H])(C([H])([H])[H])C([H])([H])C1=O']","['[#8](-[#6]1-[#6@@](-[#6@](-[#6@](-[#6](=[#8])-[#6]=1-[H])(-[H])-[H])(-[H])-[#6@@](-[H])(-[H])-[H])(-[H])-[H])-[H]', '[#8]=[#6]1-[#6@@](-[#6@](-[#6@](-[#6](=[#8])-[#6@]-1(-[H])-[H])(-[H])-[H])(-[H])-[#6@@](-[H])(-[H])-[H])(-[H])-[H]']","['InChI=1S/C7H10O2/c1-5-2-6(8)4-7(9)3-5/h4-5,8H,2-3H2,1H3/t5-/m0/s1', 'InChI=1S/C7H10O2/c1-5-2-6(8)4-7(9)3-5/h5H,2-4H2,1H3']","['MNOUUYHZNVGKSQ-YFKPBYRVSA-N', 'DMIIMPQQPXUKOO-UHFFFAOYSA-N']"
2methyl13cyclohexanedione_neut->an,5.57,"2-methyl-1,3-cyclohexanedione",doi.org/10.1038/s42004-020-0264-7,"['[H]OC1=C(C([H])([H])[H])C(=O)C([H])([H])C([H])([H])C1([H])[H]', '[H]C([H])([H])C1([H])C(=O)C([H])([H])C([H])([H])C([H])([H])C1=O']","['[#8](-[#6]1-[#6@@](-[#6@@](-[#6@](-[#6](=[#8])-[#6]=1-[#6@@](-[H])(-[H])-[H])(-[H])-[H])(-[H])-[H])(-[H])-[H])-[H]', '[#8]=[#6]1-[#6@@](-[#6@@](-[#6@](-[#6](=[#8])-[#6@]-1(-[#6@@](-[H])(-[H])-[H])-[H])(-[H])-[H])(-[H])-[H])(-[H])-[H]']","['InChI=1S/C7H10O2/c1-5-6(8)3-2-4-7(5)9/h8H,2-4H2,1H3', 'InChI=1S/C7H10O2/c1-5-6(8)3-2-4-7(5)9/h5H,2-4H2,1H3']","['NHMJKYVPXYBHSL-UHFFFAOYSA-N', 'VSGJHHIAMHUZKF-UHFFFAOYSA-N']"
2acetyl13cyclohexanedione_neut->an,5.47,"2-acetyl-1,3-cyclohexanedione",doi.org/10.1038/s42004-020-0264-7,"['[H]OC1=C(C(=O)C([H])([H])[H])C(=O)C([H])([H])C([H])([H])C1([H])[H]', '[H]OC(=C1C(=O)C([H])([H])C([H])([H])C([H])([H])C1=O)C([H])([H])[H]', '[H]C([H])([H])C(=O)C1([H])C(=O)C([H])([H])C([H])([H])C([H])([H])C1=O']","['[#8](-[#6]1-[#6@@](-[#6@@](-[#6@](-[#6](=[#8])-[#6]=1-[#6](=[#8])-[#6@@](-[H])(-[H])-[H])(-[H])-[H])(-[H])-[H])(-[H])-[H])-[H]', '[#8]=[#6]1-[#6@@](-[#6@@](-[#6@](-[#6](=[#8])-[#6]-1=[#6](-[#8]-[H])-[#6@@](-[H])(-[H])-[H])(-[H])-[H])(-[H])-[H])(-[H])-[H]', '[#8]=[#6]1-[#6@@](-[#6@@](-[#6@](-[#6](=[#8])-[#6@]-1(-[#6](=[#8])-[#6@@](-[H])(-[H])-[H])-[H])(-[H])-[H])(-[H])-[H])(-[H])-[H]']","['InChI=1S/C8H10O3/c1-5(9)8-6(10)3-2-4-7(8)11/h10H,2-4H2,1H3', 'InChI=1S/C8H10O3/c1-5(9)8-6(10)3-2-4-7(8)11/h9H,2-4H2,1H3', 'InChI=1S/C8H10O3/c1-5(9)8-6(10)3-2-4-7(8)11/h8H,2-4H2,1H3']","['YKOOMGHHVDVJAY-UHFFFAOYSA-N', 'BKPCCKCRTJGXBZ-UHFFFAOYSA-N', 'CHNXDYRMRBQOEF-UHFFFAOYSA-N']"
2acetyl55dimethyl13cyclohexanedione_neut->an,5.36,"2-acetyl-5,5-dimethyl-1,3-cyclohexanedione",doi.org/10.1038/s42004-020-0264-7,"['[H]C([H])([H])C(=O)C1([H])C(=O)C([H])([H])C(C([H])([H])[H])(C([H])([H])[H])C([H])([H])C1=O', '[H]OC1=C(C(=O)C([H])([H])[H])C(=O)C([H])([H])C(C([H])([H])[H])(C([H])([H])[H])C1([H])[H]', '[H]OC(=C1C(=O)C([H])([H])C(C([H])([H])[H])(C([H])([H])[H])C([H])([H])C1=O)C([H])([H])[H]']","['[#8]=[#6]1-[#6@@](-[#6@](-[#6@](-[#6](=[#8])-[#6@]-1(-[#6](=[#8])-[#6@@](-[H])(-[H])-[H])-[H])(-[H])-[H])(-[#6@@](-[H])(-[H])-[H])-[#6@@](-[H])(-[H])-[H])(-[H])-[H]', '[#8](-[#6]1-[#6@@](-[#6@](-[#6@](-[#6](=[#8])-[#6]=1-[#6](=[#8])-[#6@@](-[H])(-[H])-[H])(-[H])-[H])(-[#6@@](-[H])(-[H])-[H])-[#6@@](-[H])(-[H])-[H])(-[H])-[H])-[H]', '[#8]=[#6]1-[#6@@](-[#6@](-[#6@](-[#6](=[#8])-[#6]-1=[#6](-[#8]-[H])-[#6@@](-[H])(-[H])-[H])(-[H])-[H])(-[#6@@](-[H])(-[H])-[H])-[#6@@](-[H])(-[H])-[H])(-[H])-[H]']","['InChI=1S/C10H14O3/c1-6(11)9-7(12)4-10(2,3)5-8(9)13/h9H,4-5H2,1-3H3', 'InChI=1S/C10H14O3/c1-6(11)9-7(12)4-10(2,3)5-8(9)13/h12H,4-5H2,1-3H3', 'InChI=1S/C10H14O3/c1-6(11)9-7(12)4-10(2,3)5-8(9)13/h11H,4-5H2,1-3H3']","['ITSKWKZDPHAQNK-UHFFFAOYSA-N', 'DIJDAMFZOHSRID-UHFFFAOYSA-N', 'INFBGIBBJNAITK-UHFFFAOYSA-N']"
5furany2yl13cyclohexanedione_neut->an,4.73,"5-furan-2yl-1,3-cyclohexanedione",doi.org/10.1038/s42004-020-0264-7,"['[H]OC1=C([H])C(=O)C([H])([H])[C@@]([H])(c2oc([H])c([H])c2[H])C1([H])[H]', '[H]c1oc(C2([H])C([H])([H])C(=O)C([H])([H])C(=O)C2([H])[H])c([H])c1[H]']","['[#8](-[#6]1-[#6@@](-[#6@](-[#6@](-[#6](=[#8])-[#6]=1-[H])(-[H])-[H])(-[H])-[#6]1:[#6](:[#6](:[#6](:[#8]:1)-[H])-[H])-[H])(-[H])-[H])-[H]', '[#8]=[#6]1-[#6@@](-[#6@](-[#6@](-[#6](=[#8])-[#6@]-1(-[H])-[H])(-[H])-[H])(-[H])-[#6]1:[#6](:[#6](:[#6](:[#8]:1)-[H])-[H])-[H])(-[H])-[H]']","['InChI=1S/C10H10O3/c11-8-4-7(5-9(12)6-8)10-2-1-3-13-10/h1-3,6-7,11H,4-5H2/t7-/m0/s1', 'InChI=1S/C10H10O3/c11-8-4-7(5-9(12)6-8)10-2-1-3-13-10/h1-3,7H,4-6H2']","['OGXKVFJEAZMLBE-ZETCQYMHSA-N', 'FYLTVHCMIYGVPZ-UHFFFAOYSA-N']"
5pehnyl13cyclohexanedione_neut->an,4.74,"5-phenyl-1,3-cyclohexanedione",doi.org/10.1038/s42004-020-0264-7,"['[H]OC1=C([H])C(=O)C([H])([H])[C@@]([H])(c2c([H])c([H])c([H])c([H])c2[H])C1([H])[H]', '[H]c1c([H])c([H])c(C2([H])C([H])([H])C(=O)C([H])([H])C(=O)C2([H])[H])c([H])c1[H]']","['[#8](-[#6]1-[#6@@](-[#6@](-[#6@](-[#6](=[#8])-[#6]=1-[H])(-[H])-[H])(-[H])-[#6]1:[#6](:[#6](:[#6](:[#6](:[#6]:1-[H])-[H])-[H])-[H])-[H])(-[H])-[H])-[H]', '[#8]=[#6]1-[#6@@](-[#6@](-[#6@](-[#6](=[#8])-[#6@]-1(-[H])-[H])(-[H])-[H])(-[H])-[#6]1:[#6](:[#6](:[#6](:[#6](:[#6]:1-[H])-[H])-[H])-[H])-[H])(-[H])-[H]']","['InChI=1S/C12H12O2/c13-11-6-10(7-12(14)8-11)9-4-2-1-3-5-9/h1-5,8,10,13H,6-7H2/t10-/m0/s1', 'InChI=1S/C12H12O2/c13-11-6-10(7-12(14)8-11)9-4-2-1-3-5-9/h1-5,10H,6-8H2']","['ZFVDSCASCRHXCP-JTQLQIEISA-N', 'UPPYKNLSSLIIAZ-UHFFFAOYSA-N']"