compn,pKa,correct name,reference,smiles,smarts,inchi,inchiKey
25dimethylpiperazine_cation->neut,9.66,"2,5-dimethylpiperazine",10.1002/jcc.23068,['[H]N1C([H])([H])[C@@]([H])(C([H])([H])[H])N([H])C([H])([H])[C@]1([H])C([H])([H])[H]'],['[H]-[#7]1-[#6@](-[#6@](-[H])(-[#7](-[#6@](-[#6@]-1(-[H])-[#6@@](-[H])(-[H])-[H])(-[H])-[H])-[H])-[#6@@](-[H])(-[H])-[H])(-[H])-[H]'],"['InChI=1S/C6H14N2/c1-5-3-8-6(2)4-7-5/h5-8H,3-4H2,1-2H3/t5-,6+']",['NSMWYRLQHIXVAP-OLQVQODUSA-N']
25dimethylpyrazine_cation->neut,1.9,"2,5-dimethylpyrazine",10.1002/jcc.23068,['[H]c1nc(C([H])([H])[H])c([H])nc1C([H])([H])[H]'],['[#6]1(:[#6](:[#7]:[#6](:[#6](:[#7]:1)-[#6@@](-[H])(-[H])-[H])-[H])-[#6@@](-[H])(-[H])-[H])-[H]'],"['InChI=1S/C6H8N2/c1-5-3-8-6(2)4-7-5/h3-4H,1-2H3']",['LCZUOKDVTBMCMX-UHFFFAOYSA-N']
25dimethylpyridine_cation->neut,6.43,"2,5-dimethylpyridine",Lange's handbook of chemistry,['[H]c1nc(C([H])([H])[H])c([H])c([H])c1C([H])([H])[H]'],['[#6]1(:[#6](:[#7]:[#6](:[#6](:[#6]:1-[H])-[#6@@](-[H])(-[H])-[H])-[H])-[#6@@](-[H])(-[H])-[H])-[H]'],"['InChI=1S/C7H9N/c1-6-3-4-7(2)8-5-6/h3-5H,1-2H3']",['XWKFPIODWVPXLX-UHFFFAOYSA-N']
25dimethylpyridineNoxyde_cation->neut,1.21,"2,5-dimethylpyridine1-oxide",Lange's handbook of chemistry,['[H]c1c([H])c(C([H])([H])[H])[n+]([O-])c([H])c1C([H])([H])[H]'],['[#6]1(:[#6](:[#6](:[#6](:[#6](-[H]):[#7+]:1-[#8-])-[#6@@](-[H])(-[H])-[H])-[H])-[H])-[#6@@](-[H])(-[H])-[H]'],"['InChI=1S/C7H9NO/c1-6-3-4-7(2)8(9)5-6/h3-5H,1-2H3']",['KFEWUCOFCOAYQZ-UHFFFAOYSA-N']
25dimethylthiazole_cation->neut,3.91,"2,5-dimethylthiazole",doi.org/10.1039/P29750001614,['[H]c1nc(C([H])([H])[H])sc1C([H])([H])[H]'],['[#16]1:[#6](:[#6](:[#7]:[#6]:1-[#6@@](-[H])(-[H])-[H])-[H])-[#6@@](-[H])(-[H])-[H]'],"['InChI=1S/C5H7NS/c1-4-3-6-5(2)7-4/h3H,1-2H3']",['WVUHHPQQQLBMOE-UHFFFAOYSA-N']
25dinitrobenzoic_neut->an,1.62,"2,5-dinitrobenzoic acid",Lange's handbook of chemistry,['[H]OC(=O)c1c([H])c([N+](=O)[O-])c([H])c([H])c1[N+](=O)[O-]'],['[#6]1(:[#6](:[#6](:[#6](:[#6](:[#6]:1-[#7+](=[#8])-[#8-])-[H])-[#6](=[#8])-[#8]-[H])-[#7+](=[#8])-[#8-])-[H])-[H]'],"['InChI=1S/C7H4N2O6/c10-7(11)5-3-4(8(12)13)1-2-6(5)9(14)15/h1-3H,(H,10,11)']",['YKMDNKRCCODWMG-UHFFFAOYSA-N']
25dinitrophenol_neut->an,5.22,"2,5-dinitrophenol",Lange's handbook of chemistry,['[H]Oc1c([H])c([N+](=O)[O-])c([H])c([H])c1[N+](=O)[O-]'],['[#6]1(:[#6](:[#6](:[#6](:[#6](:[#6]:1-[#7+](=[#8])-[#8-])-[#8]-[H])-[H])-[#7+](=[#8])-[#8-])-[H])-[H]'],"['InChI=1S/C6H4N2O5/c9-6-3-4(7(10)11)1-2-5(6)8(12)13/h1-3,9H']",['UWEZBKLLMKVIPI-UHFFFAOYSA-N']
25dioxybenzoquinone_neut->an,2.71,"2,5-dihydroxybenzoquinone",Lange's handbook of chemistry,"['[H]OC1=C([H])C(=O)C(O[H])=C([H])C1=O', '[H]OC1=C([H])C(=O)C(=O)C([H])=C1O[H]']","['[#6]1(=[#6](-[#6](-[#6](=[#6](-[#6]-1=[#8])-[H])-[#8]-[H])=[#8])-[H])-[#8]-[H]', '[#6]1(-[#6](=[#6](-[#6](=[#6](-[#6]-1=[#8])-[H])-[#8]-[H])-[#8]-[H])-[H])=[#8]']","['InChI=1S/C6H4O4/c7-3-1-4(8)6(10)2-5(3)9/h1-2,7,10H', 'InChI=1S/C6H4O4/c7-3-1-4(8)6(10)2-5(3)9/h1-2,7,9H']","['QFSYADJLNBHAKO-UHFFFAOYSA-N', 'CTLBXJGUZCQDHA-UHFFFAOYSA-N']"
25dioxybenzoquinone_an->2an,5.18,"2,5-dihydroxybenzoquinone",Lange's handbook of chemistry,"['[H]OC1=C([H])C(=O)C(O[H])=C([H])C1=O', '[H]OC1=C([H])C(=O)C(=O)C([H])=C1O[H]']","['[#6]1(=[#6](-[#6](-[#6](=[#6](-[#6]-1=[#8])-[H])-[#8]-[H])=[#8])-[H])-[#8]-[H]', '[#6]1(-[#6](=[#6](-[#6](=[#6](-[#6]-1=[#8])-[H])-[#8]-[H])-[#8]-[H])-[H])=[#8]']","['InChI=1S/C6H4O4/c7-3-1-4(8)6(10)2-5(3)9/h1-2,7,10H', 'InChI=1S/C6H4O4/c7-3-1-4(8)6(10)2-5(3)9/h1-2,7,9H']","['QFSYADJLNBHAKO-UHFFFAOYSA-N', 'CTLBXJGUZCQDHA-UHFFFAOYSA-N']"
25dioxydinitrobenzoquinone_neut->an,-3,"2,5-dihydroxy-3,6-dinitro-1,4-benzoquinone","G. KORTUM, W. VOGEL and K. ANDRUSSOW, DISSOCIATION CONSTANTS OF ORGANIC ACIDS IN AQUEOUS SOLUTION ","['[H]OC1=C([N+](=O)[O-])C(=O)C(O[H])=C([N+](=O)[O-])C1=O', '[H]Oc1c([N+](=O)[O-])/c(=[O+]/[H])c(=O)c(=[N+]([O-])[O-])c1=O', '[H]Oc1c([N+](=O)[O-])/c(=[O+]\\[H])c(=O)c(=[N+]([O-])[O-])c1=O', '[H]OC1=C([N+](=O)[O-])C(=O)C(=O)C([N+](=O)[O-])=C1O[H]']","['[#6]1(=[#6](-[#6](-[#6](=[#6](-[#6]-1=[#8])-[#7+](=[#8])-[#8-])-[#8]-[H])=[#8])-[#7+](=[#8])-[#8-])-[#8]-[H]', '[#6]1(:[#6](:[#6](:[#6](:[#6](:[#6]:1-[#8]-[H])-[#7+](=[#8])-[#8-])=[#8+]\\[H])=[#8])=[#7+](-[#8-])-[#8-])=[#8]', '[#6]1(:[#6](:[#6](:[#6](:[#6](:[#6]:1-[#8]-[H])-[#7+](=[#8])-[#8-])=[#8+]/[H])=[#8])=[#7+](-[#8-])-[#8-])=[#8]', '[#6]1(-[#6](=[#6](-[#6](=[#6](-[#6]-1=[#8])-[#7+](=[#8])-[#8-])-[#8]-[H])-[#8]-[H])-[#7+](=[#8])-[#8-])=[#8]']","['InChI=1S/C6H2N2O8/c9-3-1(7(13)14)4(10)6(12)2(5(3)11)8(15)16/h9,12H', 'InChI=1S/C6HN2O8/c9-3-1(7(13)14)4(10)6(12)2(5(3)11)8(15)16/h(H-,9,10,11,12,13,14)/q-1/p+1', 'InChI=1S/C6H2N2O8/c9-3-1(7(13)14)4(10)6(12)2(5(3)11)8(15)16/h9,11H']","['FDOKWKTVAJNFLT-UHFFFAOYSA-N', 'HUWWQEVSJAYBPS-UHFFFAOYSA-O', 'FUSCIAFMYTZVTI-UHFFFAOYSA-N']"
25dioxydinitrobenzoquinone_an->2an,-0.5,"2,5-dihydroxy-3,6-dinitro-1,4-benzoquinone","G. KORTUM, W. VOGEL and K. ANDRUSSOW, DISSOCIATION CONSTANTS OF ORGANIC ACIDS IN AQUEOUS SOLUTION ","['[H]OC1=C([N+](=O)[O-])C(=O)C(O[H])=C([N+](=O)[O-])C1=O', '[H]Oc1c([N+](=O)[O-])/c(=[O+]/[H])c(=O)c(=[N+]([O-])[O-])c1=O', '[H]Oc1c([N+](=O)[O-])/c(=[O+]\\[H])c(=O)c(=[N+]([O-])[O-])c1=O', '[H]OC1=C([N+](=O)[O-])C(=O)C(=O)C([N+](=O)[O-])=C1O[H]']","['[#6]1(=[#6](-[#6](-[#6](=[#6](-[#6]-1=[#8])-[#7+](=[#8])-[#8-])-[#8]-[H])=[#8])-[#7+](=[#8])-[#8-])-[#8]-[H]', '[#6]1(:[#6](:[#6](:[#6](:[#6](:[#6]:1-[#8]-[H])-[#7+](=[#8])-[#8-])=[#8+]\\[H])=[#8])=[#7+](-[#8-])-[#8-])=[#8]', '[#6]1(:[#6](:[#6](:[#6](:[#6](:[#6]:1-[#8]-[H])-[#7+](=[#8])-[#8-])=[#8+]/[H])=[#8])=[#7+](-[#8-])-[#8-])=[#8]', '[#6]1(-[#6](=[#6](-[#6](=[#6](-[#6]-1=[#8])-[#7+](=[#8])-[#8-])-[#8]-[H])-[#8]-[H])-[#7+](=[#8])-[#8-])=[#8]']","['InChI=1S/C6H2N2O8/c9-3-1(7(13)14)4(10)6(12)2(5(3)11)8(15)16/h9,12H', 'InChI=1S/C6HN2O8/c9-3-1(7(13)14)4(10)6(12)2(5(3)11)8(15)16/h(H-,9,10,11,12,13,14)/q-1/p+1', 'InChI=1S/C6H2N2O8/c9-3-1(7(13)14)4(10)6(12)2(5(3)11)8(15)16/h9,11H']","['FDOKWKTVAJNFLT-UHFFFAOYSA-N', 'HUWWQEVSJAYBPS-UHFFFAOYSA-O', 'FUSCIAFMYTZVTI-UHFFFAOYSA-N']"
26dichloro4nitroaniline_cation->neut,-3.31,"2,6-dichloro-4nitroaniline",Lange's handbook of chemistry,['[H]c1c(Cl)c(N([H])[H])c(Cl)c([H])c1[N+](=O)[O-]'],['[#6]1(:[#6](:[#6](:[#6](:[#6](:[#6]:1-[#7](-[H])-[H])-[#17])-[H])-[#7+](=[#8])-[#8-])-[H])-[#17]'],"['InChI=1S/C6H4Cl2N2O2/c7-4-1-3(10(11)12)2-5(8)6(4)9/h1-2H,9H2']",['BIXZHMJUSMUDOQ-UHFFFAOYSA-N']
26dichlorophenol_neut->an,6.78,"2,6 dichlorophenol",Lange's handbook of chemistry,['[H]Oc1c(Cl)c([H])c([H])c([H])c1Cl'],['[#6]1(:[#6](:[#6](:[#6](:[#6](:[#6]:1-[#8]-[H])-[#17])-[H])-[H])-[H])-[#17]'],"['InChI=1S/C6H4Cl2O/c7-4-2-1-3-5(8)6(4)9/h1-3,9H']",['HOLHYSJJBXSLMV-UHFFFAOYSA-N']
26dihydroxybenzoic_neut->an,1.3,"2,6-dihydroxybenzoic acid",Lange's handbook of chemistry,['[H]OC(=O)c1c(O[H])c([H])c([H])c([H])c1O[H]'],['[#6]1(:[#6](:[#6](:[#6](:[#6](:[#6]:1-[H])-[H])-[H])-[#8]-[H])-[#6](=[#8])-[#8]-[H])-[#8]-[H]'],"['InChI=1S/C7H6O4/c8-4-2-1-3-5(9)6(4)7(10)11/h1-3,8-9H,(H,10,11)']",['AKEUNCKRJATALU-UHFFFAOYSA-N']
26dimethylquinoline_cation->neut,5.46,"2,6-dimethylquinoline",Lange's handbook of chemistry,['[H]c1c(C([H])([H])[H])c([H])c2c([H])c([H])c(C([H])([H])[H])nc2c1[H]'],['[#7]1:[#6]2:[#6](:[#6](:[#6](:[#6](:[#6]:2-[H])-[H])-[#6@@](-[H])(-[H])-[H])-[H]):[#6](:[#6](:[#6]:1-[#6@@](-[H])(-[H])-[H])-[H])-[H]'],"['InChI=1S/C11H11N/c1-8-3-6-11-10(7-8)5-4-9(2)12-11/h3-7H,1-2H3']",['JJPSZKIOGBRMHK-UHFFFAOYSA-N']
26dimethyl4nitrophenol_neut->an,7.19,"2,6-dimethyl4-nitrophenol",Lange's handbook of chemistry,['[H]Oc1c(C([H])([H])[H])c([H])c([N+](=O)[O-])c([H])c1C([H])([H])[H]'],['[#6]1(:[#6](:[#6](:[#6](:[#6](:[#6]:1-[H])-[#7+](=[#8])-[#8-])-[H])-[#6@@](-[H])(-[H])-[H])-[#8]-[H])-[#6@@](-[H])(-[H])-[H]'],"['InChI=1S/C8H9NO3/c1-5-3-7(9(11)12)4-6(2)8(5)10/h3-4,10H,1-2H3']",['FNORUNUDZNWQFF-UHFFFAOYSA-N']
26dimethylaniline_cation->neut,3.95,"2,6 dimethylaniline",Lange's handbook of chemistry,['[H]c1c([H])c(C([H])([H])[H])c(N([H])[H])c(C([H])([H])[H])c1[H]'],['[#6]1(:[#6](:[#6](:[#6](:[#6](:[#6]:1-[H])-[H])-[#6@@](-[H])(-[H])-[H])-[#7](-[H])-[H])-[#6@@](-[H])(-[H])-[H])-[H]'],"['InChI=1S/C8H11N/c1-6-4-3-5-7(2)8(6)9/h3-5H,9H2,1-2H3']",['UFFBMTHBGFGIHF-UHFFFAOYSA-N']
26dimethylbenzoic_neut->an,3.36,"2,6-dimethylbenzoic acid",Lange's handbook of chemistry,['[H]OC(=O)c1c(C([H])([H])[H])c([H])c([H])c([H])c1C([H])([H])[H]'],['[#6]1(:[#6](:[#6](:[#6](:[#6](:[#6]:1-[H])-[H])-[#6@@](-[H])(-[H])-[H])-[#6](=[#8])-[#8]-[H])-[#6@@](-[H])(-[H])-[H])-[H]'],"['InChI=1S/C9H10O2/c1-6-4-3-5-7(2)8(6)9(10)11/h3-5H,1-2H3,(H,10,11)']",['HCBHQDKBSKYGCK-UHFFFAOYSA-N']
26dimethylphenol_neut->an,10.59,"2,6 dimethylphenol",Lange's handbook of chemistry,['[H]Oc1c(C([H])([H])[H])c([H])c([H])c([H])c1C([H])([H])[H]'],['[#6]1(:[#6](:[#6](:[#6](:[#6](:[#6]:1-[H])-[H])-[#6@@](-[H])(-[H])-[H])-[#8]-[H])-[#6@@](-[H])(-[H])-[H])-[H]'],"['InChI=1S/C8H10O/c1-6-4-3-5-7(2)8(6)9/h3-5,9H,1-2H3']",['NXXYKOUNUYWIHA-UHFFFAOYSA-N']
26dimethylpiperidine_cation->neut,11.07,"cis-2,6-dimethylpiperidine",Lange's handbook of chemistry,['[H]N1[C@@]([H])(C([H])([H])[H])C([H])([H])C([H])([H])C([H])([H])[C@@]1([H])C([H])([H])[H]'],['[#7]1(-[#6@](-[#6@](-[#6@@](-[#6@@](-[#6@]-1(-[#6@@](-[H])(-[H])-[H])-[H])(-[H])-[H])(-[H])-[H])(-[H])-[H])(-[#6@@](-[H])(-[H])-[H])-[H])-[H]'],"['InChI=1S/C7H15N/c1-6-4-3-5-7(2)8-6/h6-8H,3-5H2,1-2H3/t6-,7+']",['SDGKUVSVPIIUCF-KNVOCYPGSA-N']
26dimethylpyrazine_cation->neut,2.2,"2,6-dimethylpyrazine",10.1002/jcc.23068,['[H]c1nc([H])c(C([H])([H])[H])nc1C([H])([H])[H]'],['[#6]1(:[#6](-[H]):[#7]:[#6](:[#6](:[#7]:1)-[#6@@](-[H])(-[H])-[H])-[H])-[#6@@](-[H])(-[H])-[H]'],"['InChI=1S/C6H8N2/c1-5-3-7-4-6(2)8-5/h3-4H,1-2H3']",['HJFZAYHYIWGLNL-UHFFFAOYSA-N']
26dimethylpyridine_cation->neut,6.71,"2,6-dimethylpyridine",Lange's handbook of chemistry,['[H]c1c(C([H])([H])[H])nc(C([H])([H])[H])c([H])c1[H]'],['[#6]1(:[#6](:[#7]:[#6](:[#6](:[#6]:1-[H])-[H])-[#6@@](-[H])(-[H])-[H])-[#6@@](-[H])(-[H])-[H])-[H]'],"['InChI=1S/C7H9N/c1-6-4-3-5-7(2)8-6/h3-5H,1-2H3']",['OISVCGZHLKNMSJ-UHFFFAOYSA-N']
26dimethylpyridineNoxyde_cation->neut,1.37,"2,6-dimethylpyridine oxide",Lange's handbook of chemistry,['[H]c1c([H])c(C([H])([H])[H])[n+]([O-])c(C([H])([H])[H])c1[H]'],['[#6]1(:[#6](:[#6](:[#6](:[#6](-[#6@@](-[H])(-[H])-[H]):[#7+]:1-[#8-])-[H])-[H])-[H])-[#6@@](-[H])(-[H])-[H]'],"['InChI=1S/C7H9NO/c1-6-4-3-5-7(2)8(6)9/h3-5H,1-2H3']",['LIDGFHXPUOJZMK-UHFFFAOYSA-N']
26dimethylpyrimidine_cation->neut,2.7,"2,6-dimethylpyrimidine",10.1002/jcc.23068,['[H]c1nc(C([H])([H])[H])nc(C([H])([H])[H])c1[H]'],['[#6]1(:[#6](:[#6](:[#7]:[#6](:[#7]:1)-[#6@@](-[H])(-[H])-[H])-[#6@@](-[H])(-[H])-[H])-[H])-[H]'],"['InChI=1S/C6H8N2/c1-5-3-4-7-6(2)8-5/h3-4H,1-2H3']",['PMCOWOCKUQWYRL-UHFFFAOYSA-N']
26dinitrobenzoic_neut->an,1.14,"2,6-dinitrobenzoic acid",Lange's handbook of chemistry,['[H]OC(=O)c1c([N+](=O)[O-])c([H])c([H])c([H])c1[N+](=O)[O-]'],['[#6]1(:[#6](:[#6](:[#6](:[#6](:[#6]:1-[H])-[H])-[#7+](=[#8])-[#8-])-[#6](=[#8])-[#8]-[H])-[#7+](=[#8])-[#8-])-[H]'],"['InChI=1S/C7H4N2O6/c10-7(11)6-4(8(12)13)2-1-3-5(6)9(14)15/h1-3H,(H,10,11)']",['HKKWSIQQYJTJLW-UHFFFAOYSA-N']
26dinitrophenol_neut->an,3.71,"2,6-dinitrophenol",Lange's handbook of chemistry,['[H]Oc1c([N+](=O)[O-])c([H])c([H])c([H])c1[N+](=O)[O-]'],['[#6]1(:[#6](:[#6](:[#6](:[#6](:[#6]:1-[#7+](=[#8])-[#8-])-[#8]-[H])-[#7+](=[#8])-[#8-])-[H])-[H])-[H]'],"['InChI=1S/C6H4N2O5/c9-6-4(7(10)11)2-1-3-5(6)8(12)13/h1-3,9H']",['JCRIDWXIBSEOEG-UHFFFAOYSA-N']
2acetamidobenzoic_neut->an,3.63,2-acetamidobenzoic acid,Lange's handbook of chemistry,['[H]OC(=O)c1c([H])c([H])c([H])c([H])c1N([H])C(=O)C([H])([H])[H]'],['[#8](-[#6](=[#8])-[#6]1:[#6](-[#7](-[#6](=[#8])-[#6@](-[H])(-[H])-[H])-[H]):[#6](:[#6](:[#6](:[#6]:1-[H])-[H])-[H])-[H])-[H]'],"['InChI=1S/C9H9NO3/c1-6(11)10-8-5-3-2-4-7(8)9(12)13/h2-5H,1H3,(H,10,11)(H,12,13)']",['QSACCXVHEVWNMX-UHFFFAOYSA-N']
2acetyl1133tetramethylguanidine_cation->neut,7.5,n-[bis(dimethylamino)methylidene]acetamide,10.1002/jcc.23068,['[H]C([H])([H])C(=O)N=C(N(C([H])([H])[H])C([H])([H])[H])N(C([H])([H])[H])C([H])([H])[H]'],['[#6](-[#7](-[#6@@](-[H])(-[H])-[H])-[#6@@](-[H])(-[H])-[H])(-[#7](-[#6@@](-[H])(-[H])-[H])-[#6@@](-[H])(-[H])-[H])=[#7]-[#6](=[#8])-[#6@@](-[H])(-[H])-[H]'],['InChI=1S/C7H15N3O/c1-6(11)8-7(9(2)3)10(4)5/h1-5H3'],['WVKKHGGBBDOAMJ-UHFFFAOYSA-N']
2acetylbenzoic_neut->an,4.13,2-acetylbenzoic acid,Lange's handbook of chemistry,['[H]OC(=O)c1c([H])c([H])c([H])c([H])c1C(=O)C([H])([H])[H]'],['[#8]=[#6](-[#6]1:[#6](:[#6](:[#6](:[#6](:[#6]:1-[H])-[H])-[H])-[H])-[#6](-[#8]-[H])=[#8])-[#6@](-[H])(-[H])-[H]'],"['InChI=1S/C9H8O3/c1-6(10)7-4-2-3-5-8(7)9(11)12/h2-5H,1H3,(H,11,12)']",['QDAWXRKTSATEOP-UHFFFAOYSA-N']
2acetamidobutanoic_neut->an,3.72,(S)-2-acetamidobutanoic acid,Lange's handbook of chemistry,['[H]OC(=O)[C@@]([H])(N([H])C(=O)C([H])([H])[H])C([H])([H])C([H])([H])[H]'],['[#8](-[#6](=[#8])-[#6@@](-[#7](-[#6](=[#8])-[#6@@](-[H])(-[H])-[H])-[H])(-[#6@@](-[#6@](-[H])(-[H])-[H])(-[H])-[H])-[H])-[H]'],"['InChI=1S/C6H11NO3/c1-3-5(6(9)10)7-4(2)8/h5H,3H2,1-2H3,(H,7,8)(H,9,10)/t5-/m0/s1']",['WZVZUKROCHDMDT-YFKPBYRVSA-N']
2acetylphenol_neut->an,9.19,2-acetylphenol,Lange's handbook of chemistry,['[H]Oc1c([H])c([H])c([H])c([H])c1C(=O)C([H])([H])[H]'],['[#6]1(:[#6](:[#6](:[#6](:[#6](:[#6]:1-[H])-[H])-[#8]-[H])-[#6](=[#8])-[#6@@](-[H])(-[H])-[H])-[H])-[H]'],"['InChI=1S/C8H8O2/c1-6(9)7-4-2-3-5-8(7)10/h2-5,10H,1H3']",['JECYUBVRTQDVAT-UHFFFAOYSA-N']
2acetylpyridine_cation->neut,2.64,2-acetylpyridine,Lange's handbook of chemistry,['[H]c1nc(C(=O)C([H])([H])[H])c([H])c([H])c1[H]'],['[#8]=[#6](-[#6]1:[#7]:[#6](:[#6](:[#6](:[#6]:1-[H])-[H])-[H])-[H])-[#6@](-[H])(-[H])-[H]'],"['InChI=1S/C7H7NO/c1-6(9)7-4-2-3-5-8-7/h2-5H,1H3']",['AJKVQEKCUACUMD-UHFFFAOYSA-N']
2aminobutanoic_cation->neut,2.29,2-(S)-amino-butanoic acid,Lange's handbook of chemistry,['[H]C([H])([H])C([H])([H])[C@@]([H])(C(=O)[O-])[N+]([H])([H])[H]'],['[#8]=[#6](-[#8-])-[#6@@](-[#7@+](-[H])(-[H])-[H])(-[#6@@](-[#6@](-[H])(-[H])-[H])(-[H])-[H])-[H]'],"['InChI=1S/C4H9NO2/c1-2-3(5)4(6)7/h3H,2,5H2,1H3,(H,6,7)/t3-/m0/s1']",['QWCKQJZIFLGMSD-VKHMYHEASA-N']
2aminobutanoic_neut->an,9.83,2-(S)-amino-butanoic acid,Lange's handbook of chemistry,['[H]C([H])([H])C([H])([H])[C@@]([H])(C(=O)[O-])[N+]([H])([H])[H]'],['[#8]=[#6](-[#8-])-[#6@@](-[#7@+](-[H])(-[H])-[H])(-[#6@@](-[#6@](-[H])(-[H])-[H])(-[H])-[H])-[H]'],"['InChI=1S/C4H9NO2/c1-2-3(5)4(6)7/h3H,2,5H2,1H3,(H,6,7)/t3-/m0/s1']",['QWCKQJZIFLGMSD-VKHMYHEASA-N']
2amino1naphtalenesulfonic_neut->an,2.35,2-amino-1-naphtalenesulfonic acid,Lange's handbook of chemistry,['[H]c1c([H])c([H])c2c(S(=O)(=O)[O-])c([N+]([H])([H])[H])c([H])c([H])c2c1[H]'],['[#6]12:[#6](:[#6](:[#6](:[#6](-[#7@@](-[H])(-[H])-[H]):[#6]:1-[#16@@](=[#8])(=[#8])-[#8-])-[H])-[H]):[#6](:[#6](:[#6](:[#6]:2-[H])-[H])-[H])-[H]'],"['InChI=1S/C10H9NO3S/c11-9-6-5-7-3-1-2-4-8(7)10(9)15(12,13)14/h1-6H,11H2,(H,12,13,14)']",['GWIAAIUASRVOIA-UHFFFAOYSA-N']
2amino2cyanopropane_cation->neut,5.3,2-amino-2-cyanopropane,10.1002/jcc.23068,['[H]N([H])C(C#N)(C([H])([H])[H])C([H])([H])[H]'],['[#1]-[#7](-[#6@](-[#6]#[#7])(-[#6@@](-[H])(-[H])-[H])-[#6@@](-[H])(-[H])-[H])-[H]'],"['InChI=1S/C4H8N2/c1-4(2,6)3-5/h6H2,1-2H3']",['JQULXIOYDDCNGR-UHFFFAOYSA-N']
2amino3methylpyridine_cation->neut,7.14,2-amino-3-methylpyridine,Lange's handbook of chemistry,['[H]c1nc(N([H])[H])c(C([H])([H])[H])c([H])c1[H]'],['[#6]1(:[#6](:[#7]:[#6](:[#6](:[#6]:1-[H])-[H])-[H])-[#7](-[H])-[H])-[#6@@](-[H])(-[H])-[H]'],"['InChI=1S/C6H8N2/c1-5-3-2-4-8-6(5)7/h2-4H,1H3,(H2,7,8)']",['RGDQRXPEZUNWHX-UHFFFAOYSA-N']
2amino4methylpyridine_cation->neut,7.48,2-amino-4-methylpyridine,Lange's handbook of chemistry,['[H]c1nc(N([H])[H])c([H])c(C([H])([H])[H])c1[H]'],['[#6]1(:[#6](:[#7]:[#6](:[#6](:[#6]:1-[#6@@](-[H])(-[H])-[H])-[H])-[H])-[#7](-[H])-[H])-[H]'],"['InChI=1S/C6H8N2/c1-5-2-3-8-6(7)4-5/h2-4H,1H3,(H2,7,8)']",['ORLGLBZRQYOWNA-UHFFFAOYSA-N']
2amino4naphtalenesulfonic_neut->an,3.79,3-amino-1-naphthalenesulfonic acid,Lange's handbook of chemistry,['[H]c1c([H])c([H])c2c(S(=O)(=O)[O-])c([H])c([N+]([H])([H])[H])c([H])c2c1[H]'],['[#6]12:[#6](:[#6](:[#6](:[#6](-[#7@@](-[H])(-[H])-[H]):[#6]:1-[H])-[H])-[#16@@](=[#8])(=[#8])-[#8-]):[#6](:[#6](:[#6](:[#6]:2-[H])-[H])-[H])-[H]'],"['InChI=1S/C10H9NO3S/c11-8-5-7-3-1-2-4-9(7)10(6-8)15(12,13)14/h1-6H,11H2,(H,12,13,14)']",['QOHOVCGREXOMGH-UHFFFAOYSA-N']
2amino56dihydropyrimidin4one_cation->neut,7.05,"2-amino-5,6-dihydro-1h-pyrimidin-4-one",10.1002/jcc.23068,"['[H]N([H])C1=NC(=O)C([H])([H])C([H])([H])N1[H]', '[H]N([H])C1=NC([H])([H])C([H])([H])C(=O)N1[H]']","['[#6]1(-[#6@@](-[#6@@](-[#7](-[#6](=[#7]-1)-[#7](-[H])-[H])-[H])(-[H])-[H])(-[H])-[H])=[#8]', '[#6]1(-[#6@@](-[#6@@](-[#7]=[#6](-[#7]-1-[H])-[#7](-[H])-[H])(-[H])-[H])(-[H])-[H])=[#8]']","['InChI=1S/C4H7N3O/c5-4-6-2-1-3(8)7-4/h1-2H2,(H3,5,6,7,8)']",['BNHBTRHDCIHBAU-UHFFFAOYSA-N']
2amino5methylpyridine_cation->neut,7.22,2-amino-5methylpyridine,Lange's handbook of chemistry,['[H]c1nc(N([H])[H])c([H])c([H])c1C([H])([H])[H]'],['[#6]1(:[#6](:[#7]:[#6](:[#6](:[#6]:1-[H])-[#6@@](-[H])(-[H])-[H])-[H])-[#7](-[H])-[H])-[H]'],"['InChI=1S/C6H8N2/c1-5-2-3-6(7)8-4-5/h2-4H,1H3,(H2,7,8)']",['CMBSSVKZOPZBKW-UHFFFAOYSA-N']
2amino6methylpyridine_cation->neut,7.41,2-amino-6methylpyridine,Lange's handbook of chemistry,['[H]c1c(N([H])[H])nc(C([H])([H])[H])c([H])c1[H]'],['[#6]1(:[#6](:[#7]:[#6](:[#6](:[#6]:1-[H])-[H])-[#6@@](-[H])(-[H])-[H])-[#7](-[H])-[H])-[H]'],"['InChI=1S/C6H8N2/c1-5-3-2-4-6(7)8-5/h2-4H,1H3,(H2,7,8)']",['QUXLCYFNVNNRBE-UHFFFAOYSA-N']
2amino6naphtalenesulfonic_neut->an,3.79,2-amino-6-naphthalenesulfonic acid,Lange's handbook of chemistry,['[H]c1c(S(=O)(=O)[O-])c([H])c2c([H])c([H])c([N+]([H])([H])[H])c([H])c2c1[H]'],['[#6]12:[#6](:[#6](:[#6](:[#6](-[#7@@](-[H])(-[H])-[H]):[#6]:1-[H])-[H])-[H]):[#6](:[#6](:[#6](:[#6]:2-[H])-[H])-[#16@@](=[#8])(=[#8])-[#8-])-[H]'],"['InChI=1S/C10H9NO3S/c11-9-3-1-8-6-10(15(12,13)14)4-2-7(8)5-9/h1-6H,11H2,(H,12,13,14)']",['SEMRCUIXRUXGJX-UHFFFAOYSA-N']
2amino8naphtalenesulfonic_neut->an,3.89,2-amino-8-naphthalenesulfonic acid,Lange's handbook of chemistry,['[H]c1c([H])c(S(=O)(=O)[O-])c2c([H])c([N+]([H])([H])[H])c([H])c([H])c2c1[H]'],['[#6]12:[#6](:[#6](:[#6](:[#6](-[#7@@](-[H])(-[H])-[H]):[#6]:1-[H])-[H])-[H]):[#6](:[#6](:[#6](:[#6]:2-[#16@@](=[#8])(=[#8])-[#8-])-[H])-[H])-[H]'],"['InChI=1S/C10H9NO3S/c11-8-5-4-7-2-1-3-10(9(7)6-8)15(12,13)14/h1-6H,11H2,(H,12,13,14)']",['FYVOTMMSGKWFPK-UHFFFAOYSA-N']
2aminoacridine_cation->neut,5.9,2-aminoacridine,profiles of drug substances excipiends and related (U),['[H]c1c([H])c([H])c2c([H])c3c([H])c(N([H])[H])c([H])c([H])c3nc2c1[H]'],['[#6]1(:[#6](:[#6]2:[#6](:[#6](:[#6]:1-[H])-[H]):[#6](:[#6]1:[#6](:[#6](-[H]):[#6](:[#6](:[#6]:1-[H])-[#7](-[H])-[H])-[H]):[#7]:2)-[H])-[H])-[H]'],"['InChI=1S/C13H10N2/c14-11-5-6-13-10(8-11)7-9-3-1-2-4-12(9)15-13/h1-8H,14H2']",['UTXPWBKKZFLMPZ-UHFFFAOYSA-N']
2aminobenzoic_cation->neut,2.09,2-aminobenzoic acid,Lange's handbook of chemistry,"['[H]OC(=O)c1c([H])c([H])c([H])c([H])c1N([H])[H]', '[H]c1c([H])c([H])c([N+]([H])([H])[H])c(C(=O)[O-])c1[H]']","['[#8](-[#6](=[#8])-[#6]1:[#6](-[#7](-[H])-[H]):[#6](:[#6](:[#6](:[#6]:1-[H])-[H])-[H])-[H])-[H]', '[#8]=[#6](-[#8-])-[#6]1:[#6](-[#7@@+](-[H])(-[H])-[H]):[#6](:[#6](:[#6](:[#6]:1-[H])-[H])-[H])-[H]']","['InChI=1S/C7H7NO2/c8-6-4-2-1-3-5(6)7(9)10/h1-4H,8H2,(H,9,10)']",['RWZYAGGXGHYGMB-UHFFFAOYSA-N']
2aminobenzoic_neut->an,4.79,2-aminobenzoic acid,Lange's handbook of chemistry,"['[H]OC(=O)c1c([H])c([H])c([H])c([H])c1N([H])[H]', '[H]c1c([H])c([H])c([N+]([H])([H])[H])c(C(=O)[O-])c1[H]']","['[#8](-[#6](=[#8])-[#6]1:[#6](-[#7](-[H])-[H]):[#6](:[#6](:[#6](:[#6]:1-[H])-[H])-[H])-[H])-[H]', '[#8]=[#6](-[#8-])-[#6]1:[#6](-[#7@@+](-[H])(-[H])-[H]):[#6](:[#6](:[#6](:[#6]:1-[H])-[H])-[H])-[H]']","['InChI=1S/C7H7NO2/c8-6-4-2-1-3-5(6)7(9)10/h1-4H,8H2,(H,9,10)']",['RWZYAGGXGHYGMB-UHFFFAOYSA-N']