compn,pKa,correct name,reference,smiles,smarts,inchi,inchiKey
7hydroxyquinoline_neut->an,8.85,7-hydroxyquinoline,Lange's handbook of chemistry,"['[H]Oc1c([H])c([H])c2c([H])c([H])c([H])nc2c1[H]', '[H]c1c([H])c([H])n([H])c2c([H])c(=O)c([H])c([H])c1-2']","['[#6]1(:[#6](:[#6]2:[#6](:[#6](:[#6]:1-[H])-[H]):[#6](:[#6](:[#6](-[H]):[#7]:2)-[H])-[H])-[H])-[#8]-[H]', '[#6]1(:[#6](:[#6]2-[#6](:[#6](:[#6]:1-[H])-[H]):[#6](:[#6](:[#6](-[H]):[#7]:2-[H])-[H])-[H])-[H])=[#8]']","['InChI=1S/C9H7NO/c11-8-4-3-7-2-1-5-10-9(7)6-8/h1-6,11H', 'InChI=1S/C9H7NO/c11-8-4-3-7-2-1-5-10-9(7)6-8/h1-6,10H']","['XCRPPAPDRUBKRJ-UHFFFAOYSA-N', 'QUUFTOGCVYWGNK-UHFFFAOYSA-N']"
7methoxyquinoline_cation->neut,5.03,7-methoxyquinoline,10.1002/jcc.23068,['[H]c1nc2c([H])c(OC([H])([H])[H])c([H])c([H])c2c([H])c1[H]'],['[#6]1(:[#6](:[#6]2:[#6](:[#6](:[#6]:1-[#8]-[#6@@](-[H])(-[H])-[H])-[H]):[#7]:[#6](:[#6](:[#6]:2-[H])-[H])-[H])-[H])-[H]'],"['InChI=1S/C10H9NO/c1-12-9-5-4-8-3-2-6-11-10(8)7-9/h2-7H,1H3']",['IVHJSNNMKJWPFW-UHFFFAOYSA-N']
7methylquinazoline_cation->neut,2.54,7-methylquinazoline,pubs.rsc.org/en/content/articlepdf/1966/j2/j29660000436,['[H]c1nc([H])c2c([H])c([H])c(C([H])([H])[H])c([H])c2n1'],['[#6]1(:[#6](:[#6]2:[#6](:[#6](:[#6]:1-[#6@@](-[H])(-[H])-[H])-[H]):[#7]:[#6](-[H]):[#7]:[#6]:2-[H])-[H])-[H]'],"['InChI=1S/C9H8N2/c1-7-2-3-8-5-10-6-11-9(8)4-7/h2-6H,1H3']",['WUQQKWIILPEEKY-UHFFFAOYSA-N']
7methylxanthine_neut->an,8.33,7-methylxanthine,Lange's handbook of chemistry,"['[H]Oc1nc([O-])nc2c1n(C([H])([H])[H])c([H])[n+]2[H]', '[H]c1n(C([H])([H])[H])c2c(=O)nc([O-])n([H])c2[n+]1[H]', '[H]Oc1c2c(nc([H])n2C([H])([H])[H])nc(=O)n1[H]', '[H]Oc1nc2nc([H])n(C([H])([H])[H])c2c(=O)n1[H]', '[H]Oc1nc(=O)n([H])c2nc([H])n(C([H])([H])[H])c12', '[H]c1n(C([H])([H])[H])c2c(=O)n([H])c([O-])nc2[n+]1[H]', '[H]Oc1nc(=O)c2c(nc([H])n2C([H])([H])[H])n1[H]', '[H]Oc1nc([O-])c2c(n1)[n+]([H])c([H])n2C([H])([H])[H]', '[H]c1nc2c(c(=O)n([H])c(=O)n2[H])n1C([H])([H])[H]', '[H]Oc1nc(O[H])c2c(n1)nc([H])n2C([H])([H])[H]']","['[#8](-[#6]1:[#7]:[#6](-[#8-]):[#7]:[#6]2:[#7+](:[#6](:[#7](:[#6]:2:1)-[#6@@](-[H])(-[H])-[H])-[H])-[H])-[H]', '[#8]=[#6]1:[#7]:[#6](-[#8-]):[#7](:[#6]2:[#7+](:[#6](:[#7](:[#6]:2:1)-[#6@@](-[H])(-[H])-[H])-[H])-[H])-[H]', '[#8](-[#6]1:[#7](:[#6](=[#8]):[#7]:[#6]2:[#7]:[#6](:[#7](:[#6]:2:1)-[#6@@](-[H])(-[H])-[H])-[H])-[H])-[H]', '[#8]=[#6]1:[#7](:[#6](-[#8]-[H]):[#7]:[#6]2:[#7]:[#6](:[#7](:[#6]:2:1)-[#6@@](-[H])(-[H])-[H])-[H])-[H]', '[#8](-[#6]1:[#7]:[#6](=[#8]):[#7](:[#6]2:[#7]:[#6](:[#7](:[#6]:2:1)-[#6@@](-[H])(-[H])-[H])-[H])-[H])-[H]', '[#8]=[#6]1:[#7](:[#6](-[#8-]):[#7]:[#6]2:[#7+](:[#6](:[#7](:[#6]:2:1)-[#6@@](-[H])(-[H])-[H])-[H])-[H])-[H]', '[#8]=[#6]1:[#7]:[#6](-[#8]-[H]):[#7](:[#6]2:[#7]:[#6](:[#7](:[#6]:2:1)-[#6@@](-[H])(-[H])-[H])-[H])-[H]', '[#8]-[#6]1:[#7]:[#6](-[#8]-[H]):[#7]:[#6]2:[#7+](:[#6](:[#7](:[#6]:2:1)-[#6@@](-[H])(-[H])-[H])-[H])-[H]', '[#8]=[#6]1:[#7](:[#6](=[#8]):[#7](:[#6]2:[#7]:[#6](:[#7](:[#6]:2:1)-[#6@@](-[H])(-[H])-[H])-[H])-[H])-[H]', '[#8](-[#6]1:[#7]:[#6](-[#8]-[H]):[#7]:[#6]2:[#7]:[#6](:[#7](:[#6]:2:1)-[#6@@](-[H])(-[H])-[H])-[H])-[H]']","['InChI=1S/C6H6N4O2/c1-10-2-7-4-3(10)5(11)9-6(12)8-4/h2H,1H3,(H2,8,9,11,12)']",['PFWLFWPASULGAN-UHFFFAOYSA-N']
7methylxanthine_an->2an,13,7-methylxanthine,Lange's handbook of chemistry,"['[H]Oc1nc([O-])nc2c1n(C([H])([H])[H])c([H])[n+]2[H]', '[H]c1n(C([H])([H])[H])c2c(=O)nc([O-])n([H])c2[n+]1[H]', '[H]Oc1c2c(nc([H])n2C([H])([H])[H])nc(=O)n1[H]', '[H]Oc1nc2nc([H])n(C([H])([H])[H])c2c(=O)n1[H]', '[H]Oc1nc(=O)n([H])c2nc([H])n(C([H])([H])[H])c12', '[H]c1n(C([H])([H])[H])c2c(=O)n([H])c([O-])nc2[n+]1[H]', '[H]Oc1nc(=O)c2c(nc([H])n2C([H])([H])[H])n1[H]', '[H]Oc1nc([O-])c2c(n1)[n+]([H])c([H])n2C([H])([H])[H]', '[H]c1nc2c(c(=O)n([H])c(=O)n2[H])n1C([H])([H])[H]', '[H]Oc1nc(O[H])c2c(n1)nc([H])n2C([H])([H])[H]']","['[#8](-[#6]1:[#7]:[#6](-[#8-]):[#7]:[#6]2:[#7+](:[#6](:[#7](:[#6]:2:1)-[#6@@](-[H])(-[H])-[H])-[H])-[H])-[H]', '[#8]=[#6]1:[#7]:[#6](-[#8-]):[#7](:[#6]2:[#7+](:[#6](:[#7](:[#6]:2:1)-[#6@@](-[H])(-[H])-[H])-[H])-[H])-[H]', '[#8](-[#6]1:[#7](:[#6](=[#8]):[#7]:[#6]2:[#7]:[#6](:[#7](:[#6]:2:1)-[#6@@](-[H])(-[H])-[H])-[H])-[H])-[H]', '[#8]=[#6]1:[#7](:[#6](-[#8]-[H]):[#7]:[#6]2:[#7]:[#6](:[#7](:[#6]:2:1)-[#6@@](-[H])(-[H])-[H])-[H])-[H]', '[#8](-[#6]1:[#7]:[#6](=[#8]):[#7](:[#6]2:[#7]:[#6](:[#7](:[#6]:2:1)-[#6@@](-[H])(-[H])-[H])-[H])-[H])-[H]', '[#8]=[#6]1:[#7](:[#6](-[#8-]):[#7]:[#6]2:[#7+](:[#6](:[#7](:[#6]:2:1)-[#6@@](-[H])(-[H])-[H])-[H])-[H])-[H]', '[#8]=[#6]1:[#7]:[#6](-[#8]-[H]):[#7](:[#6]2:[#7]:[#6](:[#7](:[#6]:2:1)-[#6@@](-[H])(-[H])-[H])-[H])-[H]', '[#8]-[#6]1:[#7]:[#6](-[#8]-[H]):[#7]:[#6]2:[#7+](:[#6](:[#7](:[#6]:2:1)-[#6@@](-[H])(-[H])-[H])-[H])-[H]', '[#8]=[#6]1:[#7](:[#6](=[#8]):[#7](:[#6]2:[#7]:[#6](:[#7](:[#6]:2:1)-[#6@@](-[H])(-[H])-[H])-[H])-[H])-[H]', '[#8](-[#6]1:[#7]:[#6](-[#8]-[H]):[#7]:[#6]2:[#7]:[#6](:[#7](:[#6]:2:1)-[#6@@](-[H])(-[H])-[H])-[H])-[H]']","['InChI=1S/C6H6N4O2/c1-10-2-7-4-3(10)5(11)9-6(12)8-4/h2H,1H3,(H2,8,9,11,12)']",['PFWLFWPASULGAN-UHFFFAOYSA-N']
7nitroisoquinoline_cation->neut,3.59,7-nitroisoquinoline,10.1002/jcc.23068,['[H]c1nc([H])c2c([H])c([N+](=O)[O-])c([H])c([H])c2c1[H]'],['[#6]1(:[#6](:[#6]2:[#6](:[#6](:[#6]:1-[#7+](=[#8])-[#8-])-[H]):[#6](-[H]):[#7]:[#6](:[#6]:2-[H])-[H])-[H])-[H]'],['InChI=1S/C9H6N2O2/c12-11(13)9-2-1-7-3-4-10-6-8(7)5-9/h1-6H'],['NYHHIPIPUVLUFF-UHFFFAOYSA-N']
8aminoisoquinoline_cation->neut,6.05,8-aminoisoquinoline,10.1002/jcc.23068,['[H]c1nc([H])c2c(N([H])[H])c([H])c([H])c([H])c2c1[H]'],['[#6]1(:[#6](:[#6]2:[#6](:[#6](:[#6]:1-[H])-[H]):[#6](:[#6](-[H]):[#7]:[#6]:2-[H])-[H])-[#7](-[H])-[H])-[H]'],"['InChI=1S/C9H8N2/c10-9-3-1-2-7-4-5-11-6-8(7)9/h1-6H,10H2']",['GUSYANXQYUJOBH-UHFFFAOYSA-N']
8aminoquinaldine_cation->neut,4.86,8-aminoquinaldine,Lange's handbook of chemistry,['[H]c1c([H])c([H])c2c([H])c([H])c(C([H])([H])[H])nc2c1N([H])[H]'],['[#7]1:[#6]2:[#6](:[#6](:[#6](:[#6]:1-[#6@@](-[H])(-[H])-[H])-[H])-[H]):[#6](:[#6](:[#6](:[#6]:2-[#7](-[H])-[H])-[H])-[H])-[H]'],"['InChI=1S/C10H10N2/c1-7-5-6-8-3-2-4-9(11)10(8)12-7/h2-6H,11H2,1H3']",['JHIAOWGCGNMQKA-UHFFFAOYSA-N']
8aminoquinoline_cation->neut,3.97,8-aminoquinoline,10.1002/jcc.23068,['[H]c1nc2c(N([H])[H])c([H])c([H])c([H])c2c([H])c1[H]'],['[#6]1(:[#6](:[#6]2:[#6](:[#6](:[#6]:1-[H])-[H]):[#6](:[#6](:[#6](-[H]):[#7]:2)-[H])-[H])-[#7](-[H])-[H])-[H]'],"['InChI=1S/C9H8N2/c10-8-5-1-3-7-4-2-6-11-9(7)8/h1-6H,10H2']",['WREVVZMUNPAPOV-UHFFFAOYSA-N']
8amino2naphthol_cation->neut,4.2,8-amino-2-naphthol,Lange's handbook of chemistry,['[H]Oc1c([H])c([H])c2c([H])c([H])c([H])c(N([H])[H])c2c1[H]'],['[#8](-[#6]1:[#6](:[#6]2:[#6](:[#6](:[#6](:[#6](:[#6]:2-[#7](-[H])-[H])-[H])-[H])-[H]):[#6](:[#6]:1-[H])-[H])-[H])-[H]'],"['InChI=1S/C10H9NO/c11-10-3-1-2-7-4-5-8(12)6-9(7)10/h1-6,12H,11H2']",['KVHHMYZBFBSVDI-UHFFFAOYSA-N']
8chloroquinoline_cation->neut,3.12,8-chloroquinoline,10.1002/jcc.23068,['[H]c1nc2c(Cl)c([H])c([H])c([H])c2c([H])c1[H]'],['[#6]1(:[#6](:[#6]2:[#6](:[#6](:[#6]:1-[H])-[#17]):[#7]:[#6](:[#6](:[#6]:2-[H])-[H])-[H])-[H])-[H]'],['InChI=1S/C9H6ClN/c10-8-5-1-3-7-4-2-6-11-9(7)8/h1-6H'],['RUSMDMDNFUYZTM-UHFFFAOYSA-N']
8hydroxy2methylquinoline_cation->neut,5.58,8-hydroxy-2-methylquinoline,10.1002/jcc.23068,['[H]Oc1c([H])c([H])c([H])c2c([H])c([H])c(C([H])([H])[H])nc12'],['[#6]1(:[#6](:[#6]2:[#6](:[#6](:[#6]:1-[H])-[H]):[#6](:[#6](:[#6](:[#7]:2)-[#6@@](-[H])(-[H])-[H])-[H])-[H])-[#8]-[H])-[H]'],"['InChI=1S/C10H9NO/c1-7-5-6-8-3-2-4-9(12)10(8)11-7/h2-6,12H,1H3']",['NBYLBWHHTUWMER-UHFFFAOYSA-N']
8hydroxy4methylquinoline_cation->neut,5.56,8-hydroxy-4-methylquinoline,10.1002/jcc.23068,['[H]Oc1c([H])c([H])c([H])c2c(C([H])([H])[H])c([H])c([H])nc12'],['[#6]1(:[#6](:[#6]2:[#6](:[#6](:[#6]:1-[H])-[H]):[#6](:[#6](:[#6](-[H]):[#7]:2)-[H])-[#6@@](-[H])(-[H])-[H])-[#8]-[H])-[H]'],"['InChI=1S/C10H9NO/c1-7-5-6-11-10-8(7)3-2-4-9(10)12/h2-6,12H,1H3']",['OYUKRQOCPFZNHR-UHFFFAOYSA-N']
8hydroxyisoquinoline_cation->neut,5.65,8-hydroxyisoquinoline,10.1002/jcc.23068,['[H]Oc1c([H])c([H])c([H])c2c([H])c([H])nc([H])c12'],['[#6]1(:[#6](:[#6]2:[#6](:[#6](:[#6]:1-[H])-[H]):[#6](:[#6](-[H]):[#7]:[#6]:2-[H])-[H])-[#8]-[H])-[H]'],"['InChI=1S/C9H7NO/c11-9-3-1-2-7-4-5-10-6-8(7)9/h1-6,11H']",['ZIXWTPREILQLAC-UHFFFAOYSA-N']
8hydroxyquinoline_cation->neut,4.91,8-hydroxyquinoline,Lange's handbook of chemistry,"['[H]Oc1c([H])c([H])c([H])c2c([H])c([H])c([H])nc12', '[H]c1c([H])c([O-])c2c(c1[H])c([H])c([H])c([H])[n+]2[H]']","['[#6]1(:[#6](:[#6]2:[#6](:[#6](:[#6]:1-[H])-[H]):[#6](:[#6](:[#6](-[H]):[#7]:2)-[H])-[H])-[#8]-[H])-[H]', '[#6]1(:[#6](:[#6]2:[#6](:[#6](:[#6]:1-[H])-[H]):[#6](:[#6](:[#6](-[H]):[#7+]:2-[H])-[H])-[H])-[#8-])-[H]']","['InChI=1S/C9H7NO/c11-8-5-1-3-7-4-2-6-10-9(7)8/h1-6,11H']",['MCJGNVYPOGVAJF-UHFFFAOYSA-N']
8hydroxyquinoline_neut->an,9.81,8-hydroxyquinoline,Lange's handbook of chemistry,"['[H]Oc1c([H])c([H])c([H])c2c([H])c([H])c([H])nc12', '[H]c1c([H])c([O-])c2c(c1[H])c([H])c([H])c([H])[n+]2[H]']","['[#6]1(:[#6](:[#6]2:[#6](:[#6](:[#6]:1-[H])-[H]):[#6](:[#6](:[#6](-[H]):[#7]:2)-[H])-[H])-[#8]-[H])-[H]', '[#6]1(:[#6](:[#6]2:[#6](:[#6](:[#6]:1-[H])-[H]):[#6](:[#6](:[#6](-[H]):[#7+]:2-[H])-[H])-[H])-[#8-])-[H]']","['InChI=1S/C9H7NO/c11-8-5-1-3-7-4-2-6-10-9(7)8/h1-6,11H']",['MCJGNVYPOGVAJF-UHFFFAOYSA-N']
8hydroxyquinoline5sulfonic_an->2an,8.76,8-hydroxyquinoline-5-sulfonic acid,doi.org/10.1016/j.molliq.2022.119526Get rights and content,['[H]Oc1c([H])c([H])c(S(=O)(=O)[O-])c2c([H])c([H])c([H])[n+]([H])c12'],['[#6]1(:[#6](:[#6]2:[#6](:[#6](:[#6]:1-[H])-[#16@](=[#8])(=[#8])-[#8-]):[#6](:[#6](:[#6](-[H]):[#7+]:2-[H])-[H])-[H])-[#8]-[H])-[H]'],"['InChI=1S/C9H7NO4S/c11-7-3-4-8(15(12,13)14)6-2-1-5-10-9(6)7/h1-5,11H,(H,12,13,14)']",['LGDFHDKSYGVKDC-UHFFFAOYSA-N']
8hydroxyquinoline5sulfonic_neut->an,4.11,8-hydroxyquinoline-5-sulfonic acid,doi.org/10.1016/j.molliq.2022.119526Get rights and content,['[H]Oc1c([H])c([H])c(S(=O)(=O)[O-])c2c([H])c([H])c([H])[n+]([H])c12'],['[#6]1(:[#6](:[#6]2:[#6](:[#6](:[#6]:1-[H])-[#16@](=[#8])(=[#8])-[#8-]):[#6](:[#6](:[#6](-[H]):[#7+]:2-[H])-[H])-[H])-[#8]-[H])-[H]'],"['InChI=1S/C9H7NO4S/c11-7-3-4-8(15(12,13)14)6-2-1-5-10-9(6)7/h1-5,11H,(H,12,13,14)']",['LGDFHDKSYGVKDC-UHFFFAOYSA-N']
8methylquinazoline_cation->neut,2.15,8-methylquinazoline,pubs.rsc.org/en/content/articlepdf/1966/j2/j29660000436,['[H]c1nc([H])c2c([H])c([H])c([H])c(C([H])([H])[H])c2n1'],['[#6]1(:[#6](:[#6]2:[#6](:[#6](:[#6]:1-[H])-[#6@@](-[H])(-[H])-[H]):[#7]:[#6](-[H]):[#7]:[#6]:2-[H])-[H])-[H]'],"['InChI=1S/C9H8N2/c1-7-3-2-4-8-5-10-6-11-9(7)8/h2-6H,1H3']",['KKASWOGQJXWOHK-UHFFFAOYSA-N']
8nitroisoquinoline_cation->neut,3.57,8-nitroisoquinoline,10.1002/jcc.23068,['[H]c1nc([H])c2c([N+](=O)[O-])c([H])c([H])c([H])c2c1[H]'],['[#6]1(:[#6](:[#6]2:[#6](:[#6](:[#6]:1-[H])-[#7+](=[#8])-[#8-]):[#6](-[H]):[#7]:[#6](:[#6]:2-[H])-[H])-[H])-[H]'],['InChI=1S/C9H6N2O2/c12-11(13)9-3-1-2-7-4-5-10-6-8(7)9/h1-6H'],['SUXMGKFFQJTYEX-UHFFFAOYSA-N']
8oxoguanine_cation->neut,-0.1,8-hydroxyguanine,10.1021/jp8068877,"['[H]Oc1nc(N([H])[H])nc2nc(O[H])n([H])c12', '[H]N([H])c1n([H])c(=O)c2c(nc([O-])n2[H])[n+]1[H]', '[H]/N=c1\\nc(O[H])c2c(n([H])c(=O)n2[H])n1[H]', '[H]Oc1nc2nc(N([H])[H])n([H])c(O[H])c-2n1', '[H]Oc1nc2c(c(=O)nc(N([H])[H])n2[H])n1[H]', '[H]Oc1c2n([H])c(=O)nc-2nc(N([H])[H])n1[H]', '[H]Oc1nc(N([H])[H])nc2c1nc(O[H])n2[H]', '[H]Oc1nc(N([H])[H])n([H])c2nc(=O)n([H])c1-2', '[H]/N=c1\\nc2c(nc(O[H])n2[H])c(O[H])n1[H]', '[H]N([H])c1nc(=O)c2c(n1[H])n([H])c(=O)n2[H]', '[H]Oc1nc2nc(N([H])[H])n([H])c(=O)c2n1[H]', '[H]Oc1nc(N([H])[H])nc2c1n([H])c(=O)n2[H]', '[H]/[O+]=c1\\n([H])c2nc(N([H])[H])nc([O-])c2n1[H]', '[H]/N=c1\\n([H])c(=O)c2c(n([H])c(=O)n2[H])n1[H]', '[H]Oc1nc(N([H])[H])[n+]([H])c2c1nc([O-])n2[H]', '[H]Oc1nc2c(=O)n([H])c(N([H])[H])nc2n1[H]', '[H]N([H])c1nc2c(c(=O)n1[H])n([H])c(=O)n2[H]', '[H]/N=c1\\nc2c(c(O[H])n1[H])n([H])c(=O)n2[H]', '[H]Oc1nc2c(=O)nc(N([H])[H])n([H])c2n1[H]', '[H]/N=c1\\n([H])c2nc(=O)n([H])c-2c(O[H])n1[H]', '[H]N([H])c1n([H])c(=O)c2nc([O-])n([H])c2[n+]1[H]', '[H]/N=c1\\n([H])c(=O)c2c(nc(O[H])n2[H])n1[H]', '[H]n1c(=O)n([H])c2c([O-])nc([N+]([H])([H])[H])nc21', '[H]Oc1nc2c([O-])n([H])c(N([H])[H])[n+]([H])c-2n1', '[H]/N=c1\\n([H])c(=O)c2nc(O[H])n([H])c2n1[H]', '[H]Oc1c2nc([O-])n([H])c2nc(=[N+]([H])[H])n1[H]']","['[#7]1:[#6](:[#7](:[#6]2:[#6](-[#8]-[H]):[#7]:[#6](-[#7](-[H])-[H]):[#7]:[#6]:1:2)-[H])-[#8]-[H]', '[#7]1:[#6](:[#7](:[#6]2:[#6](=[#8]):[#7](:[#6](-[#7](-[H])-[H]):[#7+](:[#6]:1:2)-[H])-[H])-[H])-[#8-]', '[#7]1(:[#6](:[#7](:[#6]2:[#6](-[#8]-[H]):[#7]:[#6](=[#7]\\[H]):[#7](:[#6]:1:2)-[H])-[H])=[#8])-[H]', '[#7]1:[#6](:[#7]:[#6]2:[#6](-[#8]-[H]):[#7](:[#6](-[#7](-[H])-[H]):[#7]:[#6]:1-2)-[H])-[#8]-[H]', '[#7]1:[#6](:[#7](:[#6]2:[#6](=[#8]):[#7]:[#6](-[#7](-[H])-[H]):[#7](:[#6]:1:2)-[H])-[H])-[#8]-[H]', '[#7]1:[#6](:[#7](:[#6]2:[#6](-[#8]-[H]):[#7](:[#6](-[#7](-[H])-[H]):[#7]:[#6]:1-2)-[H])-[H])=[#8]', '[#7]1(:[#6](:[#7]:[#6]2:[#6](-[#8]-[H]):[#7]:[#6](-[#7](-[H])-[H]):[#7]:[#6]:1:2)-[#8]-[H])-[H]', '[#7]1:[#6](:[#7](:[#6]2:[#6](-[#8]-[H]):[#7]:[#6](-[#7](-[H])-[H]):[#7](:[#6]:1-2)-[H])-[H])=[#8]', '[#7]1(:[#6](:[#7]:[#6]2:[#6](-[#8]-[H]):[#7](:[#6](=[#7]/[H]):[#7]:[#6]:1:2)-[H])-[#8]-[H])-[H]', '[#7]1(:[#6](:[#7](:[#6]2:[#6](=[#8]):[#7]:[#6](-[#7](-[H])-[H]):[#7](:[#6]:1:2)-[H])-[H])=[#8])-[H]', '[#7]1:[#6](:[#7](:[#6]2:[#6](=[#8]):[#7](:[#6](-[#7](-[H])-[H]):[#7]:[#6]:1:2)-[H])-[H])-[#8]-[H]', '[#7]1(:[#6](:[#7](:[#6]2:[#6](-[#8]-[H]):[#7]:[#6](-[#7](-[H])-[H]):[#7]:[#6]:1:2)-[H])=[#8])-[H]', '[#7]1(:[#6](:[#7](:[#6]2:[#6](-[#8-]):[#7]:[#6](-[#7](-[H])-[H]):[#7]:[#6]:1:2)-[H])=[#8+]\\[H])-[H]', '[#7]1(:[#6](:[#7](:[#6]2:[#6](=[#8]):[#7](:[#6](=[#7]\\[H]):[#7](:[#6]:1:2)-[H])-[H])-[H])=[#8])-[H]', '[#7]1(:[#6](:[#7]:[#6]2:[#6](-[#8]-[H]):[#7]:[#6](-[#7](-[H])-[H]):[#7+](:[#6]:1:2)-[H])-[#8-])-[H]', '[#7]1(:[#6](:[#7]:[#6]2:[#6](=[#8]):[#7](:[#6](-[#7](-[H])-[H]):[#7]:[#6]:1:2)-[H])-[#8]-[H])-[H]', '[#7]1(:[#6](:[#7](:[#6]2:[#6](=[#8]):[#7](:[#6](-[#7](-[H])-[H]):[#7]:[#6]:1:2)-[H])-[H])=[#8])-[H]', '[#7]1(:[#6](:[#7](:[#6]2:[#6](-[#8]-[H]):[#7](:[#6](=[#7]/[H]):[#7]:[#6]:1:2)-[H])-[H])=[#8])-[H]', '[#7]1(:[#6](:[#7]:[#6]2:[#6](=[#8]):[#7]:[#6](-[#7](-[H])-[H]):[#7](:[#6]:1:2)-[H])-[#8]-[H])-[H]', '[#7]1:[#6](:[#7](:[#6]2:[#6](-[#8]-[H]):[#7](:[#6](=[#7]/[H]):[#7](:[#6]:1-2)-[H])-[H])-[H])=[#8]', '[#7]1(:[#6](:[#7]:[#6]2:[#6](=[#8]):[#7](:[#6](-[#7](-[H])-[H]):[#7+](:[#6]:1:2)-[H])-[H])-[#8-])-[H]', '[#7]1:[#6](:[#7](:[#6]2:[#6](=[#8]):[#7](:[#6](=[#7]\\[H]):[#7](:[#6]:1:2)-[H])-[H])-[H])-[#8]-[H]', '[#7]1(:[#6](:[#7](:[#6]2:[#6](-[#8-]):[#7]:[#6](-[#7@@+](-[H])(-[H])-[H]):[#7]:[#6]:1:2)-[H])=[#8])-[H]', '[#7]1:[#6](:[#7]:[#6]2:[#6](-[#8-]):[#7](:[#6](-[#7](-[H])-[H]):[#7+](:[#6]:1-2)-[H])-[H])-[#8]-[H]', '[#7]1(:[#6](:[#7]:[#6]2:[#6](=[#8]):[#7](:[#6](=[#7]\\[H]):[#7](:[#6]:1:2)-[H])-[H])-[#8]-[H])-[H]', '[#7]1(:[#6](:[#7]:[#6]2:[#6](-[#8]-[H]):[#7](:[#6](=[#7+](-[H])-[H]):[#7]:[#6]:1:2)-[H])-[#8-])-[H]']","['InChI=1S/C5H5N5O2/c6-4-8-2-1(3(11)10-4)7-5(12)9-2/h(H5,6,7,8,9,10,11,12)']",['CLGFIVUFZRGQRP-UHFFFAOYSA-N']
8oxoguanine_neut->an,8.55,8-hydroxyguanine,10.1021/jp8068877,"['[H]Oc1nc(N([H])[H])nc2nc(O[H])n([H])c12', '[H]N([H])c1n([H])c(=O)c2c(nc([O-])n2[H])[n+]1[H]', '[H]/N=c1\\nc(O[H])c2c(n([H])c(=O)n2[H])n1[H]', '[H]Oc1nc2nc(N([H])[H])n([H])c(O[H])c-2n1', '[H]Oc1nc2c(c(=O)nc(N([H])[H])n2[H])n1[H]', '[H]Oc1c2n([H])c(=O)nc-2nc(N([H])[H])n1[H]', '[H]Oc1nc(N([H])[H])nc2c1nc(O[H])n2[H]', '[H]Oc1nc(N([H])[H])n([H])c2nc(=O)n([H])c1-2', '[H]/N=c1\\nc2c(nc(O[H])n2[H])c(O[H])n1[H]', '[H]N([H])c1nc(=O)c2c(n1[H])n([H])c(=O)n2[H]', '[H]Oc1nc2nc(N([H])[H])n([H])c(=O)c2n1[H]', '[H]Oc1nc(N([H])[H])nc2c1n([H])c(=O)n2[H]', '[H]/[O+]=c1\\n([H])c2nc(N([H])[H])nc([O-])c2n1[H]', '[H]/N=c1\\n([H])c(=O)c2c(n([H])c(=O)n2[H])n1[H]', '[H]Oc1nc(N([H])[H])[n+]([H])c2c1nc([O-])n2[H]', '[H]Oc1nc2c(=O)n([H])c(N([H])[H])nc2n1[H]', '[H]N([H])c1nc2c(c(=O)n1[H])n([H])c(=O)n2[H]', '[H]/N=c1\\nc2c(c(O[H])n1[H])n([H])c(=O)n2[H]', '[H]Oc1nc2c(=O)nc(N([H])[H])n([H])c2n1[H]', '[H]/N=c1\\n([H])c2nc(=O)n([H])c-2c(O[H])n1[H]', '[H]N([H])c1n([H])c(=O)c2nc([O-])n([H])c2[n+]1[H]', '[H]/N=c1\\n([H])c(=O)c2c(nc(O[H])n2[H])n1[H]', '[H]n1c(=O)n([H])c2c([O-])nc([N+]([H])([H])[H])nc21', '[H]Oc1nc2c([O-])n([H])c(N([H])[H])[n+]([H])c-2n1', '[H]/N=c1\\n([H])c(=O)c2nc(O[H])n([H])c2n1[H]', '[H]Oc1c2nc([O-])n([H])c2nc(=[N+]([H])[H])n1[H]']","['[#7]1:[#6](:[#7](:[#6]2:[#6](-[#8]-[H]):[#7]:[#6](-[#7](-[H])-[H]):[#7]:[#6]:1:2)-[H])-[#8]-[H]', '[#7]1:[#6](:[#7](:[#6]2:[#6](=[#8]):[#7](:[#6](-[#7](-[H])-[H]):[#7+](:[#6]:1:2)-[H])-[H])-[H])-[#8-]', '[#7]1(:[#6](:[#7](:[#6]2:[#6](-[#8]-[H]):[#7]:[#6](=[#7]\\[H]):[#7](:[#6]:1:2)-[H])-[H])=[#8])-[H]', '[#7]1:[#6](:[#7]:[#6]2:[#6](-[#8]-[H]):[#7](:[#6](-[#7](-[H])-[H]):[#7]:[#6]:1-2)-[H])-[#8]-[H]', '[#7]1:[#6](:[#7](:[#6]2:[#6](=[#8]):[#7]:[#6](-[#7](-[H])-[H]):[#7](:[#6]:1:2)-[H])-[H])-[#8]-[H]', '[#7]1:[#6](:[#7](:[#6]2:[#6](-[#8]-[H]):[#7](:[#6](-[#7](-[H])-[H]):[#7]:[#6]:1-2)-[H])-[H])=[#8]', '[#7]1(:[#6](:[#7]:[#6]2:[#6](-[#8]-[H]):[#7]:[#6](-[#7](-[H])-[H]):[#7]:[#6]:1:2)-[#8]-[H])-[H]', '[#7]1:[#6](:[#7](:[#6]2:[#6](-[#8]-[H]):[#7]:[#6](-[#7](-[H])-[H]):[#7](:[#6]:1-2)-[H])-[H])=[#8]', '[#7]1(:[#6](:[#7]:[#6]2:[#6](-[#8]-[H]):[#7](:[#6](=[#7]/[H]):[#7]:[#6]:1:2)-[H])-[#8]-[H])-[H]', '[#7]1(:[#6](:[#7](:[#6]2:[#6](=[#8]):[#7]:[#6](-[#7](-[H])-[H]):[#7](:[#6]:1:2)-[H])-[H])=[#8])-[H]', '[#7]1:[#6](:[#7](:[#6]2:[#6](=[#8]):[#7](:[#6](-[#7](-[H])-[H]):[#7]:[#6]:1:2)-[H])-[H])-[#8]-[H]', '[#7]1(:[#6](:[#7](:[#6]2:[#6](-[#8]-[H]):[#7]:[#6](-[#7](-[H])-[H]):[#7]:[#6]:1:2)-[H])=[#8])-[H]', '[#7]1(:[#6](:[#7](:[#6]2:[#6](-[#8-]):[#7]:[#6](-[#7](-[H])-[H]):[#7]:[#6]:1:2)-[H])=[#8+]\\[H])-[H]', '[#7]1(:[#6](:[#7](:[#6]2:[#6](=[#8]):[#7](:[#6](=[#7]\\[H]):[#7](:[#6]:1:2)-[H])-[H])-[H])=[#8])-[H]', '[#7]1(:[#6](:[#7]:[#6]2:[#6](-[#8]-[H]):[#7]:[#6](-[#7](-[H])-[H]):[#7+](:[#6]:1:2)-[H])-[#8-])-[H]', '[#7]1(:[#6](:[#7]:[#6]2:[#6](=[#8]):[#7](:[#6](-[#7](-[H])-[H]):[#7]:[#6]:1:2)-[H])-[#8]-[H])-[H]', '[#7]1(:[#6](:[#7](:[#6]2:[#6](=[#8]):[#7](:[#6](-[#7](-[H])-[H]):[#7]:[#6]:1:2)-[H])-[H])=[#8])-[H]', '[#7]1(:[#6](:[#7](:[#6]2:[#6](-[#8]-[H]):[#7](:[#6](=[#7]/[H]):[#7]:[#6]:1:2)-[H])-[H])=[#8])-[H]', '[#7]1(:[#6](:[#7]:[#6]2:[#6](=[#8]):[#7]:[#6](-[#7](-[H])-[H]):[#7](:[#6]:1:2)-[H])-[#8]-[H])-[H]', '[#7]1:[#6](:[#7](:[#6]2:[#6](-[#8]-[H]):[#7](:[#6](=[#7]/[H]):[#7](:[#6]:1-2)-[H])-[H])-[H])=[#8]', '[#7]1(:[#6](:[#7]:[#6]2:[#6](=[#8]):[#7](:[#6](-[#7](-[H])-[H]):[#7+](:[#6]:1:2)-[H])-[H])-[#8-])-[H]', '[#7]1:[#6](:[#7](:[#6]2:[#6](=[#8]):[#7](:[#6](=[#7]\\[H]):[#7](:[#6]:1:2)-[H])-[H])-[H])-[#8]-[H]', '[#7]1(:[#6](:[#7](:[#6]2:[#6](-[#8-]):[#7]:[#6](-[#7@@+](-[H])(-[H])-[H]):[#7]:[#6]:1:2)-[H])=[#8])-[H]', '[#7]1:[#6](:[#7]:[#6]2:[#6](-[#8-]):[#7](:[#6](-[#7](-[H])-[H]):[#7+](:[#6]:1-2)-[H])-[H])-[#8]-[H]', '[#7]1(:[#6](:[#7]:[#6]2:[#6](=[#8]):[#7](:[#6](=[#7]\\[H]):[#7](:[#6]:1:2)-[H])-[H])-[#8]-[H])-[H]', '[#7]1(:[#6](:[#7]:[#6]2:[#6](-[#8]-[H]):[#7](:[#6](=[#7+](-[H])-[H]):[#7]:[#6]:1:2)-[H])-[#8-])-[H]']","['InChI=1S/C5H5N5O2/c6-4-8-2-1(3(11)10-4)7-5(12)9-2/h(H5,6,7,8,9,10,11,12)']",['CLGFIVUFZRGQRP-UHFFFAOYSA-N']
9aminoacrydine_cation->neut,10,9-aminoacridine,profiles of drug substances excipiends and related (U),['[H]c1c([H])c([H])c2c(N([H])[H])c3c([H])c([H])c([H])c([H])c3nc2c1[H]'],['[#6]1(:[#6](:[#6]2:[#6](:[#6](:[#6]:1-[H])-[H]):[#7]:[#6]1:[#6](:[#6]:2-[#7](-[H])-[H]):[#6](-[H]):[#6](:[#6](:[#6]:1-[H])-[H])-[H])-[H])-[H]'],"['InChI=1S/C13H10N2/c14-13-9-5-1-3-7-11(9)15-12-8-4-2-6-10(12)13/h1-8H,(H2,14,15)']",['XJGFWWJLMVZSIG-UHFFFAOYSA-N']
9methoxycarbonylacridine_cation->neut,3.43,5-carbomethoxyacridine,10.1002/jcc.23068,['[H]c1c([H])c([H])c2c(C(=O)OC([H])([H])[H])c3c([H])c([H])c([H])c([H])c3nc2c1[H]'],['[#6]1(:[#6](:[#6]2:[#6](:[#6](:[#6]:1-[H])-[H]):[#6](:[#6]1:[#6](:[#6](-[H]):[#6](:[#6](:[#6]:1-[H])-[H])-[H]):[#7]:2)-[#6](=[#8])-[#8]-[#6@@](-[H])(-[H])-[H])-[H])-[H]'],"['InChI=1S/C15H11NO2/c1-18-15(17)14-10-6-2-4-8-12(10)16-13-9-5-3-7-11(13)14/h2-9H,1H3']",['PGWHWYBRRVQFCI-UHFFFAOYSA-N']