compn,pKa,correct name,reference,smiles,smarts,inchi,inchiKey
pphtalic_neut->an,3.54,p-phthalic acid,Lange's handbook of chemistry,['[H]OC(=O)c1c([H])c([H])c(C(=O)O[H])c([H])c1[H]'],['[#6]1(:[#6](:[#6](:[#6](:[#6](:[#6]:1-[#6](=[#8])-[#8]-[H])-[H])-[H])-[#6](=[#8])-[#8]-[H])-[H])-[H]'],"['InChI=1S/C8H6O4/c9-7(10)5-1-2-6(4-3-5)8(11)12/h1-4H,(H,9,10)(H,11,12)']",['KKEYFWRCBNTPAC-UHFFFAOYSA-N']
pphtalic_an->2an,4.46,p-phthalic acid,Lange's handbook of chemistry,['[H]OC(=O)c1c([H])c([H])c(C(=O)O[H])c([H])c1[H]'],['[#6]1(:[#6](:[#6](:[#6](:[#6](:[#6]:1-[#6](=[#8])-[#8]-[H])-[H])-[H])-[#6](=[#8])-[#8]-[H])-[H])-[H]'],"['InChI=1S/C8H6O4/c9-7(10)5-1-2-6(4-3-5)8(11)12/h1-4H,(H,9,10)(H,11,12)']",['KKEYFWRCBNTPAC-UHFFFAOYSA-N']
proline_cation->neut,1.99,proline,Lange's handbook of chemistry,['[H]C1([H])C([H])([H])[C@@]([H])(C(=O)[O-])[N+]([H])([H])C1([H])[H]'],['[H]-[#7@]1(-[H])-[#6@@](-[#6@](-[#6@](-[H])(-[#6@@]-1(-[H])-[#6](=[#8])-[#8-])-[H])(-[H])-[H])(-[H])-[H]'],"['InChI=1S/C5H9NO2/c7-5(8)4-2-1-3-6-4/h4,6H,1-3H2,(H,7,8)/t4-/m0/s1']",['ONIBWKKTOPOVIA-BYPYZUCNSA-N']
proline_neut->an,10.6,proline,Lange's handbook of chemistry,['[H]C1([H])C([H])([H])[C@@]([H])(C(=O)[O-])[N+]([H])([H])C1([H])[H]'],['[H]-[#7@]1(-[H])-[#6@@](-[#6@](-[#6@](-[H])(-[#6@@]-1(-[H])-[#6](=[#8])-[#8-])-[H])(-[H])-[H])(-[H])-[H]'],"['InChI=1S/C5H9NO2/c7-5(8)4-2-1-3-6-4/h4,6H,1-3H2,(H,7,8)/t4-/m0/s1']",['ONIBWKKTOPOVIA-BYPYZUCNSA-N']
propanoic_neut->an,4.87,2-oxopropanoic acid,Lange's handbook of chemistry,['[H]OC(=O)C([H])([H])C([H])([H])[H]'],['[#6](=[#8])(-[#8]-[H])-[#6@@](-[H])(-[H])-[#6@@](-[H])(-[H])-[H]'],"['InChI=1S/C3H6O2/c1-2-3(4)5/h2H2,1H3,(H,4,5)']",['XBDQKXXYIPTUBI-UHFFFAOYSA-N']
propargylalcohol_neut->an,13.55,propargylalcohol,DOI: 10.1021/acs.jpca.7b03907,['[H]C#CC([H])([H])O[H]'],['[#8](-[H])-[#6@@](-[H])(-[H])-[#6]#[#6]-[H]'],"['InChI=1S/C3H4O/c1-2-3-4/h1,4H,3H2']",['TVDSBUOJIPERQY-UHFFFAOYSA-N']
propiolic_neut->an,1.88,propiolic acid,Lange's handbook of chemistry,['[H]C#CC(=O)O[H]'],['[#8](-[#6](=[#8])-[#6]#[#6]-[H])-[H]'],"['InChI=1S/C3H2O2/c1-2-3(4)5/h1H,(H,4,5)']",['UORVCLMRJXCDCP-UHFFFAOYSA-N']
pseudotropine_cation->neut,9.86,pseudotropine,profiles of drug substances excipiends and related (A),['[H]O[C@@]1([H])C([H])([H])[C@@]2([H])N(C([H])([H])[H])[C@]([H])(C([H])([H])C2([H])[H])C1([H])[H]'],['[#8](-[#6@@]1(-[#6@](-[#6@@]2(-[#7](-[#6@@](-[#6@](-[#6@@]-2(-[H])-[H])(-[H])-[H])(-[#6@@]-1(-[H])-[H])-[H])-[#6@](-[H])(-[H])-[H])-[H])(-[H])-[H])-[H])-[H]'],"['InChI=1S/C8H15NO/c1-9-6-2-3-7(9)5-8(10)4-6/h6-8,10H,2-5H2,1H3/t6-,7+,8-']",['CYHOMWAPJJPNMW-RNLVFQAGSA-N']
pthiocresol_neut->an,6.52,p-thiocresol,Lange's handbook of chemistry,['[H]Sc1c([H])c([H])c(C([H])([H])[H])c([H])c1[H]'],['[#16](-[#6]1:[#6](:[#6](:[#6](:[#6](:[#6]:1-[H])-[H])-[#6@@](-[H])(-[H])-[H])-[H])-[H])-[H]'],"['InChI=1S/C7H8S/c1-6-2-4-7(8)5-3-6/h2-5,8H,1H3']",['WLHCBQAPPJAULW-UHFFFAOYSA-N']
ptoluidine_cation->neut,5.08,p-toluidine,Lange's handbook of chemistry,['[H]c1c([H])c(C([H])([H])[H])c([H])c([H])c1N([H])[H]'],['[#6]1(:[#6](:[#6](:[#6](:[#6](:[#6]:1-[H])-[#7](-[H])-[H])-[H])-[H])-[#6@@](-[H])(-[H])-[H])-[H]'],"['InChI=1S/C7H9N/c1-6-2-4-7(8)5-3-6/h2-5H,8H2,1H3']",['RZXMPPFPUUCRFN-UHFFFAOYSA-N']
ptolylphosphonic_neut->an,1.84,p-tolyl-phosphonic acid,Lange's handbook of chemistry,['[H]OP(=O)(O[H])c1c([H])c([H])c(C([H])([H])[H])c([H])c1[H]'],['[#8](-[#15@](-[#8]-[H])(=[#8])-[#6]1:[#6](:[#6](:[#6](:[#6](:[#6]:1-[H])-[H])-[#6@@](-[H])(-[H])-[H])-[H])-[H])-[H]'],"['InChI=1S/C7H9O3P/c1-6-2-4-7(5-3-6)11(8,9)10/h2-5H,1H3,(H2,8,9,10)']",['LYNDWSARZJHIKU-UHFFFAOYSA-N']
ptolylphosphonic_an->2an,7.33,p-tolyl-phosphonic acid,Lange's handbook of chemistry,['[H]OP(=O)(O[H])c1c([H])c([H])c(C([H])([H])[H])c([H])c1[H]'],['[#8](-[#15@](-[#8]-[H])(=[#8])-[#6]1:[#6](:[#6](:[#6](:[#6](:[#6]:1-[H])-[H])-[#6@@](-[H])(-[H])-[H])-[H])-[H])-[H]'],"['InChI=1S/C7H9O3P/c1-6-2-4-7(5-3-6)11(8,9)10/h2-5H,1H3,(H2,8,9,10)']",['LYNDWSARZJHIKU-UHFFFAOYSA-N']
purine_neut->an,8.92,purine,Lange's handbook of chemistry,"['[H]c1nc2c([H])nc([H])n([H])c-2n1', '[H]c1nc2nc([H])n([H])c([H])c-2n1', '[H]c1nc([H])c2c(n1)nc([H])n2[H]', '[H]c1nc([H])c2nc([H])n([H])c2n1']","['[#6]12-[#6](:[#6](:[#7]:[#6](:[#7]:1-[H])-[H])-[H]):[#7]:[#6](:[#7]:2)-[H]', '[#6]12-[#6](:[#6](:[#7](:[#6](:[#7]:1)-[H])-[H])-[H]):[#7]:[#6](:[#7]:2)-[H]', '[#6]12:[#6](:[#6](:[#7]:[#6](:[#7]:1)-[H])-[H]):[#7](:[#6](:[#7]:2)-[H])-[H]', '[#6]12:[#6](:[#6](:[#7]:[#6](:[#7]:1)-[H])-[H]):[#7]:[#6](:[#7]:2-[H])-[H]']","['InChI=1S/C5H4N4/c1-4-5(8-2-6-1)9-3-7-4/h1-3H,(H,6,7,8,9)']",['KDCGOANMDULRCW-UHFFFAOYSA-N']
pyrazine_cation->neut,0.6,pyrazinone,Lange's handbook of chemistry,['[H]c1nc([H])c([H])nc1[H]'],['[#6]1(:[#6](-[H]):[#7]:[#6](:[#6](-[H]):[#7]:1)-[H])-[H]'],['InChI=1S/C4H4N2/c1-2-6-4-3-5-1/h1-4H'],['KYQCOXFCLRTKLS-UHFFFAOYSA-N']
pyridazine_cation->neut,2.33,"3,6-dimethylpyridazine",Lange's handbook of chemistry,['[H]c1nnc([H])c([H])c1[H]'],['[#6]1(:[#6](:[#6](:[#6](-[H]):[#7]:[#7]:1)-[H])-[H])-[H]'],['InChI=1S/C4H4N2/c1-2-4-6-5-3-1/h1-4H'],['PBMFSQRYOILNGV-UHFFFAOYSA-N']
pyridine_cation->neut,5.17,pyridine,Lange's handbook of chemistry,['[H]c1nc([H])c([H])c([H])c1[H]'],['[#6]1(:[#6](-[H]):[#7]:[#6](:[#6](:[#6]:1-[H])-[H])-[H])-[H]'],['InChI=1S/C5H5N/c1-2-4-6-5-3-1/h1-5H'],['JUJWROOIHBZHMG-UHFFFAOYSA-N']
pyridine26dicarboxylic_neut->an,2.22,"pyridine-2,6-dicarboxylic acid",https://doi.org/10.1016/S0022-0728(73)80202-5,"['[H]OC(=O)c1nc(C(=O)O[H])c([H])c([H])c1[H]', '[H]OC(=O)c1c([H])c([H])c([H])c(C(=O)[O-])[n+]1[H]']","['[#8](-[#6](=[#8])-[#6]1:[#7]:[#6](:[#6](:[#6](:[#6]:1-[H])-[H])-[H])-[#6](-[#8]-[H])=[#8])-[H]', '[#8](-[#6](=[#8])-[#6]1:[#7+](:[#6](:[#6](:[#6](:[#6]:1-[H])-[H])-[H])-[#6](=[#8])-[#8-])-[H])-[H]']","['InChI=1S/C7H5NO4/c9-6(10)4-2-1-3-5(8-4)7(11)12/h1-3H,(H,9,10)(H,11,12)']",['WJJMNDUMQPNECX-UHFFFAOYSA-N']
pyridine26dicarboxylic_an->2an,5.22,"pyridine-2,6-dicarboxylic acid",https://doi.org/10.1016/S0022-0728(73)80202-5,"['[H]OC(=O)c1nc(C(=O)O[H])c([H])c([H])c1[H]', '[H]OC(=O)c1c([H])c([H])c([H])c(C(=O)[O-])[n+]1[H]']","['[#8](-[#6](=[#8])-[#6]1:[#7]:[#6](:[#6](:[#6](:[#6]:1-[H])-[H])-[H])-[#6](-[#8]-[H])=[#8])-[H]', '[#8](-[#6](=[#8])-[#6]1:[#7+](:[#6](:[#6](:[#6](:[#6]:1-[H])-[H])-[H])-[#6](=[#8])-[#8-])-[H])-[H]']","['InChI=1S/C7H5NO4/c9-6(10)4-2-1-3-5(8-4)7(11)12/h1-3H,(H,9,10)(H,11,12)']",['WJJMNDUMQPNECX-UHFFFAOYSA-N']
pyridineoxide_cation->neut,0.69,pyridine-1-oxide,Lange's handbook of chemistry,['[H]c1c([H])c([H])[n+]([O-])c([H])c1[H]'],['[#6]1(:[#6](:[#6](:[#6](:[#6](:[#7+]:1-[#8-])-[H])-[H])-[H])-[H])-[H]'],['InChI=1S/C5H5NO/c7-6-4-2-1-3-5-6/h1-5H'],['ILVXOBCQQYKLDS-UHFFFAOYSA-N']
pyrimidine_cation->neut,1.3,pyrimidinamine,Lange's handbook of chemistry,['[H]c1nc([H])c([H])c([H])n1'],['[#6]1(:[#6](:[#6](-[H]):[#7]:[#6](-[H]):[#7]:1)-[H])-[H]'],['InChI=1S/C4H4N2/c1-2-5-4-6-3-1/h1-4H'],['CZPWVGJYEJSRLH-UHFFFAOYSA-N']
pyrrole2carboxylic_neut->an,4.43,pyrrole-2-carboxylic acid,"M.M. T. Khan, A. E. Martell, J. Cm. Chem. Soc. 91, 4668 (1969)",['[H]OC(=O)c1c([H])c([H])c([H])n1[H]'],['[#8](-[#6](=[#8])-[#6]1:[#7](:[#6](:[#6](:[#6]:1-[H])-[H])-[H])-[H])-[H]'],"['InChI=1S/C5H5NO2/c7-5(8)4-2-1-3-6-4/h1-3,6H,(H,7,8)']",['WRHZVMBBRYBTKZ-UHFFFAOYSA-N']
pyrrole3carboxylic_neut->an,5.07,pyrrole 3-carboxylic acid,"H. Rapoport, C. D. Willson, J. Org. Chem. 26, 1102 (1961)",['[H]OC(=O)c1c([H])c([H])n([H])c1[H]'],['[#8](-[#6](=[#8])-[#6]1:[#6](:[#7](:[#6](:[#6]:1-[H])-[H])-[H])-[H])-[H]'],"['InChI=1S/C5H5NO2/c7-5(8)4-1-2-6-3-4/h1-3,6H,(H,7,8)']",['DOYOPBSXEIZLRE-UHFFFAOYSA-N']
pyrrolidine_cation->neut,11.31,pyrrolidine,Lange's handbook of chemistry,['[H]N1C([H])([H])C([H])([H])C([H])([H])C1([H])[H]'],['[H]-[#7]1-[#6@](-[#6@@](-[#6@@](-[#6@@]-1(-[H])-[H])(-[H])-[H])(-[H])-[H])(-[H])-[H]'],"['InChI=1S/C4H9N/c1-2-4-5-3-1/h5H,1-4H2']",['RWRDLPDLKQPQOW-UHFFFAOYSA-N']
quinazoline_cation->neut,1.95,methyl quinazoline,10.1002/ejoc.201700749,['[H]c1nc([H])c2c([H])c([H])c([H])c([H])c2n1'],['[#6]1(:[#6](:[#6]2:[#6](:[#6](:[#6]:1-[H])-[H]):[#6](-[H]):[#7]:[#6](-[H]):[#7]:2)-[H])-[H]'],['InChI=1S/C8H6N2/c1-2-4-8-7(3-1)5-9-6-10-8/h1-6H'],['JWVCLYRUEFBMGU-UHFFFAOYSA-N']
quinidine_2cation->cation,4.2,quinidine,profiles of drug substances excipiends and related (U),['[H]O[C@@]([H])(c1c([H])c([H])nc2c([H])c([H])c(OC([H])([H])[H])c([H])c12)[C@]1([H])N2C([H])([H])C([H])([H])[C@@]([H])(C1([H])[H])[C@@]([H])(C([H])=C([H])[H])C2([H])[H]'],['[#8](-[#6@](-[#6@@]1(-[#7]2-[#6@](-[#6@@](-[#6@](-[#6@@]-1(-[H])-[H])(-[#6@](-[#6@@]-2(-[H])-[H])(-[H])-[H])-[H])(-[#6](=[#6](-[H])-[H])-[H])-[H])(-[H])-[H])-[H])(-[#6]1:[#6]2:[#6](:[#7]:[#6](:[#6]:1-[H])-[H]):[#6](:[#6](:[#6](-[#8]-[#6@](-[H])(-[H])-[H]):[#6]:2-[H])-[H])-[H])-[H])-[H]'],"['InChI=1S/C20H24N2O2/c1-3-13-12-22-9-7-14(13)10-19(22)20(23)16-6-8-21-18-5-4-15(24-2)11-17(16)18/h3-6,8,11,13-14,19-20,23H,1,7,9-10,12H2,2H3/t13-,14-,19+,20-/m0/s1']",['LOUPRKONTZGTKE-LHHVKLHASA-N']
quinidine_cation->neut,8.8,quinidine,profiles of drug substances excipiends and related (U),['[H]O[C@@]([H])(c1c([H])c([H])nc2c([H])c([H])c(OC([H])([H])[H])c([H])c12)[C@]1([H])N2C([H])([H])C([H])([H])[C@@]([H])(C1([H])[H])[C@@]([H])(C([H])=C([H])[H])C2([H])[H]'],['[#8](-[#6@](-[#6@@]1(-[#7]2-[#6@](-[#6@@](-[#6@](-[#6@@]-1(-[H])-[H])(-[#6@](-[#6@@]-2(-[H])-[H])(-[H])-[H])-[H])(-[#6](=[#6](-[H])-[H])-[H])-[H])(-[H])-[H])-[H])(-[#6]1:[#6]2:[#6](:[#7]:[#6](:[#6]:1-[H])-[H]):[#6](:[#6](:[#6](-[#8]-[#6@](-[H])(-[H])-[H]):[#6]:2-[H])-[H])-[H])-[H])-[H]'],"['InChI=1S/C20H24N2O2/c1-3-13-12-22-9-7-14(13)10-19(22)20(23)16-6-8-21-18-5-4-15(24-2)11-17(16)18/h3-6,8,11,13-14,19-20,23H,1,7,9-10,12H2,2H3/t13-,14-,19+,20-/m0/s1']",['LOUPRKONTZGTKE-LHHVKLHASA-N']
quinine_2cation->cation,4.33,quinine,profiles of drug substances excipiends and related (U),['[H]O[C@]([H])(c1c([H])c([H])nc2c([H])c([H])c(OC([H])([H])[H])c([H])c12)[C@@]1([H])N2C([H])([H])C([H])([H])[C@@]([H])(C1([H])[H])[C@@]([H])(C([H])=C([H])[H])C2([H])[H]'],['[#8](-[#6@@](-[#6@]1(-[#7]2-[#6@](-[#6@@](-[#6@](-[#6@@]-1(-[H])-[H])(-[#6@](-[#6@@]-2(-[H])-[H])(-[H])-[H])-[H])(-[#6](=[#6](-[H])-[H])-[H])-[H])(-[H])-[H])-[H])(-[#6]1:[#6]2:[#6](:[#7]:[#6](:[#6]:1-[H])-[H]):[#6](:[#6](:[#6](-[#8]-[#6@](-[H])(-[H])-[H]):[#6]:2-[H])-[H])-[H])-[H])-[H]'],"['InChI=1S/C20H24N2O2/c1-3-13-12-22-9-7-14(13)10-19(22)20(23)16-6-8-21-18-5-4-15(24-2)11-17(16)18/h3-6,8,11,13-14,19-20,23H,1,7,9-10,12H2,2H3/t13-,14-,19-,20+/m0/s1']",['LOUPRKONTZGTKE-WZBLMQSHSA-N']
quinine_cation->neut,8.59,quinine,profiles of drug substances excipiends and related (U),['[H]O[C@]([H])(c1c([H])c([H])nc2c([H])c([H])c(OC([H])([H])[H])c([H])c12)[C@@]1([H])N2C([H])([H])C([H])([H])[C@@]([H])(C1([H])[H])[C@@]([H])(C([H])=C([H])[H])C2([H])[H]'],['[#8](-[#6@@](-[#6@]1(-[#7]2-[#6@](-[#6@@](-[#6@](-[#6@@]-1(-[H])-[H])(-[#6@](-[#6@@]-2(-[H])-[H])(-[H])-[H])-[H])(-[#6](=[#6](-[H])-[H])-[H])-[H])(-[H])-[H])-[H])(-[#6]1:[#6]2:[#6](:[#7]:[#6](:[#6]:1-[H])-[H]):[#6](:[#6](:[#6](-[#8]-[#6@](-[H])(-[H])-[H]):[#6]:2-[H])-[H])-[H])-[H])-[H]'],"['InChI=1S/C20H24N2O2/c1-3-13-12-22-9-7-14(13)10-19(22)20(23)16-6-8-21-18-5-4-15(24-2)11-17(16)18/h3-6,8,11,13-14,19-20,23H,1,7,9-10,12H2,2H3/t13-,14-,19-,20+/m0/s1']",['LOUPRKONTZGTKE-WZBLMQSHSA-N']
quinoline_cation->neut,4.8,quinoline,Lange's handbook of chemistry,['[H]c1nc2c([H])c([H])c([H])c([H])c2c([H])c1[H]'],['[#6]1(:[#6](:[#6]2:[#6](:[#6](:[#6]:1-[H])-[H]):[#6](:[#6](:[#6](-[H]):[#7]:2)-[H])-[H])-[H])-[H]'],['InChI=1S/C9H7N/c1-2-6-9-8(4-1)5-3-7-10-9/h1-7H'],['SMWDFEZZVXVKRB-UHFFFAOYSA-N']
quinoxaline_cation->neut,0.72,quinoxalinone,Lange's handbook of chemistry,['[H]c1nc2c([H])c([H])c([H])c([H])c2nc1[H]'],['[#6]1(:[#6](:[#6]2:[#6](:[#6](:[#6]:1-[H])-[H]):[#7]:[#6](:[#6](-[H]):[#7]:2)-[H])-[H])-[H]'],['InChI=1S/C8H6N2/c1-2-4-8-7(3-1)9-5-6-10-8/h1-6H'],['XSCHRSMBECNVNS-UHFFFAOYSA-N']
rubeanic_neut->an,10.89,rubeanic,Lange's handbook of chemistry,['[H]N([H])C(=S)C(=S)N([H])[H]'],['[#16]=[#6](-[#7](-[H])-[H])-[#6](=[#16])-[#7](-[H])-[H]'],"['InChI=1S/C2H4N2S2/c3-1(5)2(4)6/h(H2,3,5)(H2,4,6)']",['OAEGRYMCJYIXQT-UHFFFAOYSA-N']
s-methylisothiourea_cation->neut,9.83,s-methylisothiourea,Lange's handbook of chemistry,"['[H]/N=C(\\SC([H])([H])[H])N([H])[H]', '[H]/N=C(/SC([H])([H])[H])N([H])[H]']","['[#16](/[#6](-[#7](-[H])-[H])=[#7]\\[H])-[#6@](-[H])(-[H])-[H]', '[#16](/[#6](-[#7](-[H])-[H])=[#7]/[H])-[#6@](-[H])(-[H])-[H]']","['InChI=1S/C2H6N2S/c1-5-2(3)4/h1H3,(H3,3,4)']",['SDDKIZNHOCEXTF-UHFFFAOYSA-N']
saccharin_neut->an,2.32,saccharin,Lange's handbook of chemistry,['[H]c1c([H])c([H])c2c(c1[H])C(=O)N([H])S2(=O)=O'],['[#6]1(:[#6](:[#6]2:[#6](:[#6](:[#6]:1-[H])-[H])-[#6](=[#8])-[#7](-[#16@]-2(=[#8])=[#8])-[H])-[H])-[H]'],"['InChI=1S/C7H5NO3S/c9-7-5-3-1-2-4-6(5)12(10,11)8-7/h1-4H,(H,8,9)']",['CVHZOJJKTDOEJC-UHFFFAOYSA-N']
salicylic_an->2an,12.38,salicylic,Lange's handbook of chemistry,['[H]OC(=O)c1c([H])c([H])c([H])c([H])c1O[H]'],['[#8](-[#6]1:[#6](:[#6](:[#6](:[#6](:[#6]:1-[H])-[H])-[H])-[H])-[#6](-[#8]-[H])=[#8])-[H]'],"['InChI=1S/C7H6O3/c8-6-4-2-1-3-5(6)7(9)10/h1-4,8H,(H,9,10)']",['YGSDEFSMJLZEOE-UHFFFAOYSA-N']
salicylic_neut->an,2.78,salicylic,profiles of drug substances excipiends and related (A),['[H]OC(=O)c1c([H])c([H])c([H])c([H])c1O[H]'],['[#8](-[#6]1:[#6](:[#6](:[#6](:[#6](:[#6]:1-[H])-[H])-[H])-[H])-[#6](-[#8]-[H])=[#8])-[H]'],"['InChI=1S/C7H6O3/c8-6-4-2-1-3-5(6)7(9)10/h1-4,8H,(H,9,10)']",['YGSDEFSMJLZEOE-UHFFFAOYSA-N']
sarcosin_cation->neut,2.12,sarcosin,Lange's handbook of chemistry,['[H]C([H])([H])[N+]([H])([H])C([H])([H])C(=O)[O-]'],['[#6](=[#8])(-[#8-])-[#6@@](-[H])(-[H])-[#7@+](-[H])(-[H])-[#6@@](-[H])(-[H])-[H]'],"['InChI=1S/C3H7NO2/c1-4-2-3(5)6/h4H,2H2,1H3,(H,5,6)']",['FSYKKLYZXJSNPZ-UHFFFAOYSA-N']
sarcosin_neut->an,10.2,sarcosin,Lange's handbook of chemistry,['[H]C([H])([H])[N+]([H])([H])C([H])([H])C(=O)[O-]'],['[#6](=[#8])(-[#8-])-[#6@@](-[H])(-[H])-[#7@+](-[H])(-[H])-[#6@@](-[H])(-[H])-[H]'],"['InChI=1S/C3H7NO2/c1-4-2-3(5)6/h4H,2H2,1H3,(H,5,6)']",['FSYKKLYZXJSNPZ-UHFFFAOYSA-N']
sarcosinamide_cation->neut,8.02,sarcosinamide,doi.org/10.1002/qsar.19830020204,['[H]N([H])C(=O)C([H])([H])N([H])C([H])([H])[H]'],['[#8]=[#6](-[#7](-[H])-[H])-[#6@](-[#7](-[#6@](-[H])(-[H])-[H])-[H])(-[H])-[H]'],"['InChI=1S/C3H8N2O/c1-5-2-3(4)6/h5H,2H2,1H3,(H2,4,6)']",['CBBFWSMELCDMPZ-UHFFFAOYSA-N']
sarcosindimethylamide_cation->neut,8.86,sarcosine dimethylamide,Lange's handbook of chemistry,['[H]N(C([H])([H])[H])C([H])([H])C(=O)N(C([H])([H])[H])C([H])([H])[H]'],['[#8]=[#6](-[#7](-[#6@@](-[H])(-[H])-[H])-[#6@@](-[H])(-[H])-[H])-[#6@](-[#7](-[#6@](-[H])(-[H])-[H])-[H])(-[H])-[H]'],"['InChI=1S/C5H12N2O/c1-6-4-5(8)7(2)3/h6H,4H2,1-3H3']",['CAGXPPQTXUCBOY-UHFFFAOYSA-N']
sarcosinmethylamide_cation->neut,8.28,sarcosine methylamide,Lange's handbook of chemistry,['[H]N(C(=O)C([H])([H])N([H])C([H])([H])[H])C([H])([H])[H]'],['[#8]=[#6](-[#7](-[H])-[#6@@](-[H])(-[H])-[H])-[#6@](-[#7](-[#6@](-[H])(-[H])-[H])-[H])(-[H])-[H]'],"['InChI=1S/C4H10N2O/c1-5-3-4(7)6-2/h5H,3H2,1-2H3,(H,6,7)']",['NODGJSNKUCVLNN-UHFFFAOYSA-N']
semicarbazide_cation->neut,3.53,semicarbazide,Lange's handbook of chemistry,['[H]N([H])C(=O)N([H])N([H])[H]'],['[#6](=[#8])(-[#7](-[H])-[H])-[#7](-[H])-[#7](-[H])-[H]'],"['InChI=1S/CH5N3O/c2-1(5)4-3/h3H2,(H3,2,4,5)']",['DUIOPKIIICUYRZ-UHFFFAOYSA-N']
serine_cation->neut,2.21,serine,Lange's handbook of chemistry,['[H]OC([H])([H])[C@@]([H])(C(=O)[O-])[N+]([H])([H])[H]'],['[H]-[#7@@](-[H])(-[H])-[#6@](-[#6](=[#8])-[#8-])(-[#6@](-[H])(-[H])-[#8]-[H])-[H]'],"['InChI=1S/C3H7NO3/c4-2(1-5)3(6)7/h2,5H,1,4H2,(H,6,7)/t2-/m0/s1']",['MTCFGRXMJLQNBG-REOHCLBHSA-N']
serine_neut->an,9.15,serine,Lange's handbook of chemistry,['[H]OC([H])([H])[C@@]([H])(C(=O)[O-])[N+]([H])([H])[H]'],['[H]-[#7@@](-[H])(-[H])-[#6@](-[#6](=[#8])-[#8-])(-[#6@](-[H])(-[H])-[#8]-[H])-[H]'],"['InChI=1S/C3H7NO3/c4-2(1-5)3(6)7/h2,5H,1,4H2,(H,6,7)/t2-/m0/s1']",['MTCFGRXMJLQNBG-REOHCLBHSA-N']
serinemethylester_cation->neut,7.03,serine methyl ester,Lange's handbook of chemistry,['[H]OC([H])([H])[C@@]([H])(C(=O)OC([H])([H])[H])N([H])[H]'],['[#8](-[#6](=[#8])-[#6@@](-[#7](-[H])-[H])(-[#6@@](-[#8]-[H])(-[H])-[H])-[H])-[#6@](-[H])(-[H])-[H]'],"['InChI=1S/C4H9NO3/c1-8-4(7)3(5)2-6/h3,6H,2,5H2,1H3/t3-/m0/s1']",['ANSUDRATXSJBLY-VKHMYHEASA-N']
sparteine_2cation->cation,4.49,sparteine,Lange's handbook of chemistry,['[H]C1([H])N2C([H])([H])[C@]3([H])C([H])([H])[C@@]([H])(C([H])([H])N4C([H])([H])C([H])([H])C([H])([H])C([H])([H])[C@@]43[H])[C@]2([H])C([H])([H])C([H])([H])C1([H])[H]'],['[#7]12-[#6@@](-[#6@]3(-[#6@](-[#6@](-[#6@]4(-[#7](-[#6@]-3(-[H])-[H])-[#6@](-[#6@](-[#6@@](-[#6@@]-4(-[H])-[H])(-[H])-[H])(-[H])-[H])(-[H])-[H])-[H])(-[#6@@]-1(-[H])-[H])-[H])(-[H])-[H])-[H])(-[#6@](-[#6@](-[#6@@](-[#6@@]-2(-[H])-[H])(-[H])-[H])(-[H])-[H])(-[H])-[H])-[H]'],"['InChI=1S/C15H26N2/c1-3-7-16-11-13-9-12(14(16)5-1)10-17-8-4-2-6-15(13)17/h12-15H,1-11H2/t12-,13-,14-,15+/m0/s1']",['SLRCCWJSBJZJBV-ZQDZILKHSA-N']
sparteine_cation->neut,11.76,sparteine,Lange's handbook of chemistry,['[H]C1([H])N2C([H])([H])[C@]3([H])C([H])([H])[C@@]([H])(C([H])([H])N4C([H])([H])C([H])([H])C([H])([H])C([H])([H])[C@@]43[H])[C@]2([H])C([H])([H])C([H])([H])C1([H])[H]'],['[#7]12-[#6@@](-[#6@]3(-[#6@](-[#6@](-[#6@]4(-[#7](-[#6@]-3(-[H])-[H])-[#6@](-[#6@](-[#6@@](-[#6@@]-4(-[H])-[H])(-[H])-[H])(-[H])-[H])(-[H])-[H])-[H])(-[#6@@]-1(-[H])-[H])-[H])(-[H])-[H])-[H])(-[#6@](-[#6@](-[#6@@](-[#6@@]-2(-[H])-[H])(-[H])-[H])(-[H])-[H])(-[H])-[H])-[H]'],"['InChI=1S/C15H26N2/c1-3-7-16-11-13-9-12(14(16)5-1)10-17-8-4-2-6-15(13)17/h12-15H,1-11H2/t12-,13-,14-,15+/m0/s1']",['SLRCCWJSBJZJBV-ZQDZILKHSA-N']
spinacine_2cation->cation,1.65,spinacine,Lange's handbook of chemistry,['[H]c1nc2c(n1[H])C([H])([H])[N+]([H])([H])[C@]([H])(C(=O)[O-])C2([H])[H]'],['[#8]=[#6](-[#8-])-[#6@]1(-[#7@+](-[#6@](-[#6]2:[#7](:[#6](:[#7]:[#6]:2-[#6@@]-1(-[H])-[H])-[H])-[H])(-[H])-[H])(-[H])-[H])-[H]'],"['InChI=1S/C7H9N3O2/c11-7(12)5-1-4-6(2-8-5)10-3-9-4/h3,5,8H,1-2H2,(H,9,10)(H,11,12)/t5-/m0/s1']",['YCFJXOFFQLPCHD-YFKPBYRVSA-N']
spinacine_cation->neut,4.94,spinacine,Lange's handbook of chemistry,['[H]c1nc2c(n1[H])C([H])([H])[N+]([H])([H])[C@]([H])(C(=O)[O-])C2([H])[H]'],['[#8]=[#6](-[#8-])-[#6@]1(-[#7@+](-[#6@](-[#6]2:[#7](:[#6](:[#7]:[#6]:2-[#6@@]-1(-[H])-[H])-[H])-[H])(-[H])-[H])(-[H])-[H])-[H]'],"['InChI=1S/C7H9N3O2/c11-7(12)5-1-4-6(2-8-5)10-3-9-4/h3,5,8H,1-2H2,(H,9,10)(H,11,12)/t5-/m0/s1']",['YCFJXOFFQLPCHD-YFKPBYRVSA-N']
spinacine_neut->an,8.66,spinacine,Lange's handbook of chemistry,['[H]c1nc2c(n1[H])C([H])([H])[N+]([H])([H])[C@]([H])(C(=O)[O-])C2([H])[H]'],['[#8]=[#6](-[#8-])-[#6@]1(-[#7@+](-[#6@](-[#6]2:[#7](:[#6](:[#7]:[#6]:2-[#6@@]-1(-[H])-[H])-[H])-[H])(-[H])-[H])(-[H])-[H])-[H]'],"['InChI=1S/C7H9N3O2/c11-7(12)5-1-4-6(2-8-5)10-3-9-4/h3,5,8H,1-2H2,(H,9,10)(H,11,12)/t5-/m0/s1']",['YCFJXOFFQLPCHD-YFKPBYRVSA-N']
squaric_an->2an,3.48,squaric acid,doi.org/10.1021/j100719a013,['[H]Oc1c(O[H])c(=O)c1=O'],['[#6]1(:[#6](:[#6](:[#6]:1=[#8])=[#8])-[#8]-[H])-[#8]-[H]'],['InChI=1S/C4H2O4/c5-1-2(6)4(8)3(1)7/h5-6H'],['PWEBUXCTKOWPCW-UHFFFAOYSA-N']
squaric_neut->an,0.59,squaric acid,doi.org/10.1021/j100719a013,['[H]Oc1c(O[H])c(=O)c1=O'],['[#6]1(:[#6](:[#6](:[#6]:1=[#8])=[#8])-[#8]-[H])-[#8]-[H]'],['InChI=1S/C4H2O4/c5-1-2(6)4(8)3(1)7/h5-6H'],['PWEBUXCTKOWPCW-UHFFFAOYSA-N']
strychnine_cation->neut,8.2,strychnine,Lange's handbook of chemistry,['[H]C1=C2C([H])([H])N3C([H])([H])C([H])([H])[C@]45c6c([H])c([H])c([H])c([H])c6N6C(=O)C([H])([H])[C@]([H])(OC1([H])[H])[C@@]([H])([C@]64[H])[C@@]2([H])C([H])([H])[C@]35[H]'],['[#8]1-[#6@@]2(-[#6@]3(-[#6@@]4(-[#7](-[#6]5:[#6](-[#6@]-46-[#6@]4(-[#7](-[#6@](-[#6@@]-6(-[H])-[H])(-[H])-[H])-[#6@](-[#6](-[#6@@]-3(-[#6@@]-4(-[H])-[H])-[H])=[#6](-[#6@@]-1(-[H])-[H])-[H])(-[H])-[H])-[H]):[#6](:[#6](:[#6](:[#6]:5-[H])-[H])-[H])-[H])-[#6](=[#8])-[#6@@]-2(-[H])-[H])-[H])-[H])-[H]'],"['InChI=1S/C21H22N2O2/c24-18-10-16-19-13-9-17-21(6-7-22(17)11-12(13)5-8-25-16)14-3-1-2-4-15(14)23(18)20(19)21/h1-5,13,16-17,19-20H,6-11H2/t13-,16-,17-,19-,20-,21+/m0/s1']",['QMGVPVSNSZLJIA-FVWCLLPLSA-N']