compn,pKa,correct name,reference,smiles,smarts,inchi,inchiKey
n3fluoro4nitrophenylimidazolin2imine_cation->neut,7.8,"n-(3-fluoro-4-nitrophenyl)-4,5-dihydro-1h-imidazol-2-amine","DOI: 10.1039/c7nj02497e New J. Chem., 2017, 41, 11016--11028",['[H]c1c([H])c([N+](=O)[O-])c(F)c([H])c1N=C1N([H])C([H])([H])C([H])([H])N1[H]'],['[#6]1(-[#7](-[#6@@](-[#6@](-[H])(-[H])-[#7]-1-[H])(-[H])-[H])-[H])=[#7]-[#6]1:[#6](:[#6](:[#6](:[#6](:[#6]:1-[H])-[#9])-[#7+](=[#8])-[#8-])-[H])-[H]'],"['InChI=1S/C9H9FN4O2/c10-7-5-6(1-2-8(7)14(15)16)13-9-11-3-4-12-9/h1-2,5H,3-4H2,(H2,11,12,13)']",['DUYZNVCDESBBNK-UHFFFAOYSA-N']
n3pyridylimidazolin2imine_2cation->cation,3.05,"n-(4,5-dihydro-1h-imidazol-2-yl)pyridin-3-amine","DOI: 10.1039/c7nj02497e New J. Chem., 2017, 41, 11016--11028",['[H]c1nc([H])c(N=C2N([H])C([H])([H])C([H])([H])N2[H])c([H])c1[H]'],['[#6]1(-[#7](-[#6@@](-[#6@](-[H])(-[H])-[#7]-1-[H])(-[H])-[H])-[H])=[#7]-[#6]1:[#6](:[#6](:[#6](-[H]):[#7]:[#6]:1-[H])-[H])-[H]'],"['InChI=1S/C8H10N4/c1-2-7(6-9-3-1)12-8-10-4-5-11-8/h1-3,6H,4-5H2,(H2,10,11,12)']",['CEXQIXFKTKRYBB-UHFFFAOYSA-N']
n3pyridylimidazolin2imine_cation->neut,8.99,"n-(4,5-dihydro-1h-imidazol-2-yl)pyridin-3-amine","DOI: 10.1039/c7nj02497e New J. Chem., 2017, 41, 11016--11028",['[H]c1nc([H])c(N=C2N([H])C([H])([H])C([H])([H])N2[H])c([H])c1[H]'],['[#6]1(-[#7](-[#6@@](-[#6@](-[H])(-[H])-[#7]-1-[H])(-[H])-[H])-[H])=[#7]-[#6]1:[#6](:[#6](:[#6](-[H]):[#7]:[#6]:1-[H])-[H])-[H]'],"['InChI=1S/C8H10N4/c1-2-7(6-9-3-1)12-8-10-4-5-11-8/h1-3,6H,4-5H2,(H2,10,11,12)']",['CEXQIXFKTKRYBB-UHFFFAOYSA-N']
n2pyridylimidazolin2imine_cation->neut,9.45,n-(2-imidazoline-2-yl)pyridine-2-amine,"DOI: 10.1039/c7nj02497e New J. Chem., 2017, 41, 11016--11028",['[H]c1nc(N=C2N([H])C([H])([H])C([H])([H])N2[H])c([H])c([H])c1[H]'],['[#6]1(-[#7](-[#6@@](-[#6@](-[H])(-[H])-[#7]-1-[H])(-[H])-[H])-[H])=[#7]-[#6]1:[#6](:[#6](:[#6](:[#6](-[H]):[#7]:1)-[H])-[H])-[H]'],"['InChI=1S/C8H10N4/c1-2-4-9-7(3-1)12-8-10-5-6-11-8/h1-4H,5-6H2,(H2,9,10,11,12)']",['KQVZRQLMSQZRDL-UHFFFAOYSA-N']
nphenylguanidine_cation->neut,10.9,n-phenylguanidine,"DOI: 10.1039/c7nj02497e New J. Chem., 2017, 41, 11016--11028",['[H]c1c([H])c([H])c(N=C(N([H])[H])N([H])[H])c([H])c1[H]'],['[#6](-[#7](-[H])-[H])(-[#7](-[H])-[H])=[#7]-[#6]1:[#6](:[#6](:[#6](:[#6](:[#6]:1-[H])-[H])-[H])-[H])-[H]'],"['InChI=1S/C7H9N3/c8-7(9)10-6-4-2-1-3-5-6/h1-5H,(H4,8,9,10)']",['QRJZGVVKGFIGLI-UHFFFAOYSA-N']
4aminophenylguanidine_cation->neut,12.01,1-(4-aminophenyl)guanidine,"DOI: 10.1039/c7nj02497e New J. Chem., 2017, 41, 11016--11028",['[H]c1c([H])c(N([H])[H])c([H])c([H])c1N=C(N([H])[H])N([H])[H]'],['[#6](-[#7](-[H])-[H])(-[#7](-[H])-[H])=[#7]-[#6]1:[#6](:[#6](:[#6](:[#6](:[#6]:1-[H])-[H])-[#7](-[H])-[H])-[H])-[H]'],"['InChI=1S/C7H10N4/c8-5-1-3-6(4-2-5)11-7(9)10/h1-4H,8H2,(H4,9,10,11)']",['HXKWSIPCTVYMBN-UHFFFAOYSA-N']
4aminophenylguanidine_2cation->cation,3.63,1-(4-aminophenyl)guanidine,"DOI: 10.1039/c7nj02497e New J. Chem., 2017, 41, 11016--11028",['[H]c1c([H])c(N([H])[H])c([H])c([H])c1N=C(N([H])[H])N([H])[H]'],['[#6](-[#7](-[H])-[H])(-[#7](-[H])-[H])=[#7]-[#6]1:[#6](:[#6](:[#6](:[#6](:[#6]:1-[H])-[H])-[#7](-[H])-[H])-[H])-[H]'],"['InChI=1S/C7H10N4/c8-5-1-3-6(4-2-5)11-7(9)10/h1-4H,8H2,(H4,9,10,11)']",['HXKWSIPCTVYMBN-UHFFFAOYSA-N']
benzodioxolylguanidine_cation->neut,11.03,"n-1,3-benzodioxol-5-ylguanidine","DOI: 10.1039/c7nj02497e New J. Chem., 2017, 41, 11016--11028",['[H]c1c([H])c2c(c([H])c1N=C(N([H])[H])N([H])[H])OC([H])([H])O2'],['[#6](-[#7](-[H])-[H])(-[#7](-[H])-[H])=[#7]-[#6]1:[#6](:[#6](:[#6]2:[#6](:[#6]:1-[H])-[#8]-[#6@@](-[#8]-2)(-[H])-[H])-[H])-[H]'],"['InChI=1S/C8H9N3O2/c9-8(10)11-5-1-2-6-7(3-5)13-4-12-6/h1-3H,4H2,(H4,9,10,11)']",['OZINHCFSCQEUPW-UHFFFAOYSA-N']
245trimethylphenylguanidine_cation->neut,11.35,"2-(2,4,5-trimethylphenyl)guanidine","DOI: 10.1039/c7nj02497e New J. Chem., 2017, 41, 11016--11028",['[H]c1c(N=C(N([H])[H])N([H])[H])c(C([H])([H])[H])c([H])c(C([H])([H])[H])c1C([H])([H])[H]'],['[#6](-[#7](-[H])-[H])(-[#7](-[H])-[H])=[#7]-[#6]1:[#6](:[#6](:[#6](:[#6](:[#6]:1-[H])-[#6@@](-[H])(-[H])-[H])-[#6@@](-[H])(-[H])-[H])-[H])-[#6@@](-[H])(-[H])-[H]'],"['InChI=1S/C10H15N3/c1-6-4-8(3)9(5-7(6)2)13-10(11)12/h4-5H,1-3H3,(H4,11,12,13)']",['SNQBVNWKPKELGO-UHFFFAOYSA-N']
4nitropyridinenoxide_cation->neut,-1.7,4-nitropyridine 1-oxide,"10.1021/acs.jpca.9b10319 J. Phys. Chem. A 2020, 124, 538551",['[H]C1=C([H])[N+](=O)C([H])=C([H])C1=[N+]([O-])[O-]'],['[#6]1(=[#6](-[#6](-[#6](=[#6](-[H])-[#7+]-1=[#8])-[H])=[#7+](-[#8-])-[#8-])-[H])-[H]'],['InChI=1S/C5H4N2O3/c8-6-3-1-5(2-4-6)7(9)10/h1-4H'],['RXKNNAKAVAHBNK-UHFFFAOYSA-N']
2hydroxypyrimidine_cation->neut,2.24,2-hydroxypyrimidine,doi.org/10.1039/JR9520003716,"['[H]Oc1nc([H])c([H])c([H])n1', '[H]c1nc(=O)n([H])c([H])c1[H]']","['[#6]1(:[#7]:[#6](:[#6](:[#6](-[H]):[#7]:1)-[H])-[H])-[#8]-[H]', '[#6]1(:[#7]:[#6](:[#6](:[#6](-[H]):[#7]:1-[H])-[H])-[H])=[#8]']","['InChI=1S/C4H4N2O/c7-4-5-2-1-3-6-4/h1-3H,(H,5,6,7)']",['VTGOHKSTWXHQJK-UHFFFAOYSA-N']
2hydroxypyrimidine_neut->an,9.17,2-hydroxypyrimidine,doi.org/10.1039/JR9520003716,"['[H]Oc1nc([H])c([H])c([H])n1', '[H]c1nc(=O)n([H])c([H])c1[H]']","['[#6]1(:[#7]:[#6](:[#6](:[#6](-[H]):[#7]:1)-[H])-[H])-[#8]-[H]', '[#6]1(:[#7]:[#6](:[#6](:[#6](-[H]):[#7]:1-[H])-[H])-[H])=[#8]']","['InChI=1S/C4H4N2O/c7-4-5-2-1-3-6-4/h1-3H,(H,5,6,7)']",['VTGOHKSTWXHQJK-UHFFFAOYSA-N']
4hydroxypyrimidine_neut->an,8.59,4-hydroxypyrimidine,doi.org/10.1039/JR9520003716,"['[H]Oc1nc([H])nc([H])c1[H]', '[H]c1c([H])n([H])c([H])nc1=O', '[H]c1nc([H])n([H])c(=O)c1[H]']","['[#6]1(:[#7]:[#6](:[#6](:[#6](:[#7]:1)-[#8]-[H])-[H])-[H])-[H]', '[#6]1(:[#7](:[#6](:[#6](:[#6](:[#7]:1)=[#8])-[H])-[H])-[H])-[H]', '[#6]1(:[#7]:[#6](:[#6](:[#6](:[#7]:1-[H])=[#8])-[H])-[H])-[H]']","['InChI=1S/C4H4N2O/c7-4-1-2-5-3-6-4/h1-3H,(H,5,6,7)']",['DNCYBUMDUBHIJZ-UHFFFAOYSA-N']
hydroxytropolone_neut->an,6.7,3-hydroxytropolone,https://doi.org/10.1016/j.tetlet.2019.05.034,"['[H]Oc1c([H])c([H])c([H])c([H])c(O[H])c1=O', '[H]Oc1c([H])c([H])c([H])c([H])c(=O)c1O[H]']","['[#6]1(:[#6](:[#6](:[#6](:[#6](:[#6](:[#6]:1-[H])-[#8]-[H])=[#8])-[#8]-[H])-[H])-[H])-[H]', '[#6]1(:[#6](:[#6](:[#6](:[#6](:[#6](:[#6]:1-[H])=[#8])-[#8]-[H])-[#8]-[H])-[H])-[H])-[H]']","['InChI=1S/C7H6O3/c8-5-3-1-2-4-6(9)7(5)10/h1-4H,(H2,8,9,10)']",['ABNPYUDYGCGOTK-UHFFFAOYSA-N']
hydroxytropolone_an->2an,11.5,3-hydroxytropolone,https://doi.org/10.1016/j.tetlet.2019.05.034,"['[H]Oc1c([H])c([H])c([H])c([H])c(O[H])c1=O', '[H]Oc1c([H])c([H])c([H])c([H])c(=O)c1O[H]']","['[#6]1(:[#6](:[#6](:[#6](:[#6](:[#6](:[#6]:1-[H])-[#8]-[H])=[#8])-[#8]-[H])-[H])-[H])-[H]', '[#6]1(:[#6](:[#6](:[#6](:[#6](:[#6](:[#6]:1-[H])=[#8])-[#8]-[H])-[#8]-[H])-[H])-[H])-[H]']","['InChI=1S/C7H6O3/c8-5-3-1-2-4-6(9)7(5)10/h1-4H,(H2,8,9,10)']",['ABNPYUDYGCGOTK-UHFFFAOYSA-N']
histamine_2cation->cation,6.04,histamine,doi.org/10.1016/j.cplett.2003.11.001,"['[H]c1nc([H])n([H])c1C([H])([H])C([H])([H])N([H])[H]', '[H]c1nc(C([H])([H])C([H])([H])N([H])[H])c([H])n1[H]']","['[#7]1(:[#6](-[#6@@](-[#6@](-[#7](-[H])-[H])(-[H])-[H])(-[H])-[H]):[#6](:[#7]:[#6]:1-[H])-[H])-[H]', '[#7]1:[#6](-[#6@@](-[#6@](-[#7](-[H])-[H])(-[H])-[H])(-[H])-[H]):[#6](:[#7](:[#6]:1-[H])-[H])-[H]']","['InChI=1S/C5H9N3/c6-2-1-5-3-7-4-8-5/h3-4H,1-2,6H2,(H,7,8)']",['NTYJJOPFIAHURM-UHFFFAOYSA-N']
histamine_cation->neut,9.2,histamine,doi.org/10.1016/j.cplett.2003.11.001,"['[H]c1nc([H])n([H])c1C([H])([H])C([H])([H])N([H])[H]', '[H]c1nc(C([H])([H])C([H])([H])N([H])[H])c([H])n1[H]']","['[#7]1(:[#6](-[#6@@](-[#6@](-[#7](-[H])-[H])(-[H])-[H])(-[H])-[H]):[#6](:[#7]:[#6]:1-[H])-[H])-[H]', '[#7]1:[#6](-[#6@@](-[#6@](-[#7](-[H])-[H])(-[H])-[H])(-[H])-[H]):[#6](:[#7](:[#6]:1-[H])-[H])-[H]']","['InChI=1S/C5H9N3/c6-2-1-5-3-7-4-8-5/h3-4H,1-2,6H2,(H,7,8)']",['NTYJJOPFIAHURM-UHFFFAOYSA-N']
diphenylmethanol_neut->an,13.54,diphenylmethanol,DOI: 10.1021/acs.jpca.7b03907,['[H]OC([H])(c1c([H])c([H])c([H])c([H])c1[H])c1c([H])c([H])c([H])c([H])c1[H]'],['[H]-[#6@@](-[#6]1:[#6](:[#6](:[#6](:[#6](:[#6]:1-[H])-[H])-[H])-[H])-[H])(-[#6]1:[#6](:[#6](:[#6](:[#6](:[#6]:1-[H])-[H])-[H])-[H])-[H])-[#8]-[H]'],"['InChI=1S/C13H12O/c14-13(11-7-3-1-4-8-11)12-9-5-2-6-10-12/h1-10,13-14H']",['QILSFLSDHQAZET-UHFFFAOYSA-N']
25dimethylpyrrole_cation->neut,-0.71,"2,5-dimethylpyrrole",doi.org/10.1021/ja00901a020,['[H]c1c([H])c(C([H])([H])[H])n([H])c1C([H])([H])[H]'],['[#7]1(:[#6](:[#6](:[#6](:[#6]:1-[#6@@](-[H])(-[H])-[H])-[H])-[H])-[#6@@](-[H])(-[H])-[H])-[H]'],"['InChI=1S/C6H9N/c1-5-3-4-6(2)7-5/h3-4,7H,1-2H3']",['PAPNRQCYSFBWDI-UHFFFAOYSA-N']
235trimethylpyrrole_cation->neut,2,"2,3,5-trimethylpyrrole",doi.org/10.1021/ja00901a020,['[H]c1c(C([H])([H])[H])c(C([H])([H])[H])n([H])c1C([H])([H])[H]'],['[#7]1(:[#6](:[#6](:[#6](:[#6]:1-[#6@@](-[H])(-[H])-[H])-[H])-[#6@@](-[H])(-[H])-[H])-[#6@@](-[H])(-[H])-[H])-[H]'],"['InChI=1S/C7H11N/c1-5-4-6(2)8-7(5)3/h4,8H,1-3H3']",['VIDOWPWTFHJVID-UHFFFAOYSA-N']
24dimethylpyrrole_cation->neut,2.55,"2,4-dimethylpyrrole",doi.org/10.1021/ja00901a020,['[H]c1c(C([H])([H])[H])c([H])n([H])c1C([H])([H])[H]'],['[#7]1(:[#6](:[#6](:[#6](:[#6]:1-[H])-[#6@@](-[H])(-[H])-[H])-[H])-[#6@@](-[H])(-[H])-[H])-[H]'],"['InChI=1S/C6H9N/c1-5-3-6(2)7-4-5/h3-4,7H,1-2H3']",['MFFMQGGZCLEMCI-UHFFFAOYSA-N']
pyrazole_neut->an,13.91,pyrazole,https://doi.org/10.1016/0166-1280(88)80471-8,['[H]c1nn([H])c([H])c1[H]'],['[#7]1(:[#7]:[#6](:[#6](:[#6]:1-[H])-[H])-[H])-[H]'],"['InChI=1S/C3H4N2/c1-2-4-5-3-1/h1-3H,(H,4,5)']",['WTKZEGDFNFYCGP-UHFFFAOYSA-N']
benzotriazole_neut->an,8.38,benzotriazole,doi.org/10.1021/ja00221a001,"['[H]c1c([H])c([H])c2nn([H])nc2c1[H]', '[H]c1c([H])c([H])c2c(nnn2[H])c1[H]']","['[#6]12:[#6](:[#6](:[#6](:[#6](:[#6]:1-[H])-[H])-[H])-[H]):[#7]:[#7](:[#7]:2)-[H]', '[#6]12:[#6](:[#6](:[#6](:[#6](:[#6]:1-[H])-[H])-[H])-[H]):[#7](-[H]):[#7]:[#7]:2']","['InChI=1S/C6H5N3/c1-2-4-6-5(3-1)7-9-8-6/h1-4H,(H,7,8,9)']",['QRUDEWIWKLJBPS-UHFFFAOYSA-N']
Smethyl2mercaptopyridine_cation->neut,3.62,2-methylmercaptopyridine,doi.org/10.1039/JR9590002384,['[H]c1nc(SC([H])([H])[H])c([H])c([H])c1[H]'],['[#16](-[#6]1:[#7]:[#6](:[#6](:[#6](:[#6]:1-[H])-[H])-[H])-[H])-[#6@@](-[H])(-[H])-[H]'],"['InChI=1S/C6H7NS/c1-8-6-4-2-3-5-7-6/h2-5H,1H3']",['VLQBSKLZRSUMTJ-UHFFFAOYSA-N']
Nmethyl2mercaptopyridine_cation->neut,-1.22,1-methyl-2-thiopyridone,doi.org/10.1039/JR9590002384,['[H]c1c([H])c([H])n(C([H])([H])[H])c(=S)c1[H]'],['[#16]=[#6]1:[#7](:[#6](:[#6](:[#6](:[#6]:1-[H])-[H])-[H])-[H])-[#6@@](-[H])(-[H])-[H]'],"['InChI=1S/C6H7NS/c1-7-5-3-2-4-6(7)8/h2-5H,1H3']",['UHOAUPKGWPQNDM-UHFFFAOYSA-N']
Smethyl3mercaptopyridine_cation->neut,4.45,3-methylmercaptopyridine,doi.org/10.1039/JR9590002384,['[H]c1nc([H])c(SC([H])([H])[H])c([H])c1[H]'],['[#16](-[#6]1:[#6](:[#6](:[#6](:[#7]:[#6]:1-[H])-[H])-[H])-[H])-[#6@@](-[H])(-[H])-[H]'],"['InChI=1S/C6H7NS/c1-8-6-3-2-4-7-5-6/h2-5H,1H3']",['AULOGPOZBOCNSX-UHFFFAOYSA-N']
Nmethyl3mercaptopyridine_cation->neut,2.27,1-methylpyridin-1-ium-3-thiolate,doi.org/10.1039/JR9590002384,['[H]c1c([H])c([H])[n+](C([H])([H])[H])c([H])c1[S-]'],['[#16]-[#6]1:[#6](:[#6](:[#6](:[#7+](:[#6]:1-[H])-[#6@@](-[H])(-[H])-[H])-[H])-[H])-[H]'],"['InChI=1S/C6H7NS/c1-7-4-2-3-6(8)5-7/h2-5H,1H3']",['YLRKFAYBIJBIOW-UHFFFAOYSA-N']
Smethyl4mercaptopyridine_cation->neut,5.97,4-(Methylthio)pyridine,doi.org/10.1039/JR9590002384,['[H]c1nc([H])c([H])c(SC([H])([H])[H])c1[H]'],['[#16](-[#6]1:[#6](:[#6](:[#7]:[#6](:[#6]:1-[H])-[H])-[H])-[H])-[#6@@](-[H])(-[H])-[H]'],"['InChI=1S/C6H7NS/c1-8-6-2-4-7-5-3-6/h2-5H,1H3']",['XCHSSZMKKXPBAI-UHFFFAOYSA-N']
Nmethyl4mercaptopyridine_cation->neut,1.3,1-methyl-4(1h)-pyridinethione,doi.org/10.1039/JR9590002384,['[H]c1c([H])n(C([H])([H])[H])c([H])c([H])c1=S'],['[#16]=[#6]1:[#6](:[#6](:[#7](:[#6](:[#6]:1-[H])-[H])-[#6@@](-[H])(-[H])-[H])-[H])-[H]'],"['InChI=1S/C6H7NS/c1-7-4-2-6(8)3-5-7/h2-5H,1H3']",['AXSKLZVLVONUIC-UHFFFAOYSA-N']
Smethyl2mercaptoquinoline_cation->neut,3.71,2-(Methylthio)quinoline,doi.org/10.1039/JR9590002384,['[H]c1c([H])c([H])c2c([H])c([H])c(SC([H])([H])[H])nc2c1[H]'],['[#16](-[#6]1:[#7]:[#6]2:[#6](:[#6](:[#6]:1-[H])-[H]):[#6](:[#6](:[#6](:[#6]:2-[H])-[H])-[H])-[H])-[#6@@](-[H])(-[H])-[H]'],"['InChI=1S/C10H9NS/c1-12-10-7-6-8-4-2-3-5-9(8)11-10/h2-7H,1H3']",['NINCMKJQHKDMPH-UHFFFAOYSA-N']
Smethyl3mercaptoquinoline_cation->neut,3.88,3-(Methylthio)quinoline,doi.org/10.1039/JR9590002384,['[H]c1nc2c([H])c([H])c([H])c([H])c2c([H])c1SC([H])([H])[H]'],['[#16](-[#6]1:[#6](:[#6]2:[#6](:[#7]:[#6]:1-[H]):[#6](:[#6](:[#6](:[#6]:2-[H])-[H])-[H])-[H])-[H])-[#6@@](-[H])(-[H])-[H]'],"['InChI=1S/C10H9NS/c1-12-9-6-8-4-2-3-5-10(8)11-7-9/h2-7H,1H3']",['GYORPPNTMWUJCH-UHFFFAOYSA-N']
Smethyl4mercaptoquinoline_cation->neut,5.81,4-(Methylthio)quinoline,doi.org/10.1039/JR9590002384,['[H]c1nc2c([H])c([H])c([H])c([H])c2c(SC([H])([H])[H])c1[H]'],['[#16](-[#6]1:[#6]2:[#6](:[#7]:[#6](:[#6]:1-[H])-[H]):[#6](:[#6](:[#6](:[#6]:2-[H])-[H])-[H])-[H])-[#6@@](-[H])(-[H])-[H]'],"['InChI=1S/C10H9NS/c1-12-10-6-7-11-9-5-3-2-4-8(9)10/h2-7H,1H3']",['UPWGLVMHTJEWLR-UHFFFAOYSA-N']
5mercaptoquinoline_cation->neut,3.31,5-mercaptoquinoline,doi.org/10.1039/JR9590002384,"['[H]c1c([H])c2n([H])c([H])c([H])c([H])c-2c(=S)c1[H]', '[H]Sc1c([H])c([H])c([H])c2nc([H])c([H])c([H])c12']","['[#16]=[#6]1:[#6]2-[#6](:[#7](:[#6](:[#6](:[#6]:2-[H])-[H])-[H])-[H]):[#6](:[#6](:[#6]:1-[H])-[H])-[H]', '[#16](-[#6]1:[#6]2:[#6](:[#7]:[#6](:[#6](:[#6]:2-[H])-[H])-[H]):[#6](:[#6](:[#6]:1-[H])-[H])-[H])-[H]']","['InChI=1S/C9H7NS/c11-9-5-1-4-8-7(9)3-2-6-10-8/h1-6,10H', 'InChI=1S/C9H7NS/c11-9-5-1-4-8-7(9)3-2-6-10-8/h1-6,11H']","['QEYQMGRPZBVWBE-UHFFFAOYSA-N', 'XAXWWYIMGUQNMY-UHFFFAOYSA-N']"
5mercaptoquinoline_neut->an,6.48,5-mercaptoquinoline,doi.org/10.1039/JR9590002384,"['[H]c1c([H])c2n([H])c([H])c([H])c([H])c-2c(=S)c1[H]', '[H]Sc1c([H])c([H])c([H])c2nc([H])c([H])c([H])c12']","['[#16]=[#6]1:[#6]2-[#6](:[#7](:[#6](:[#6](:[#6]:2-[H])-[H])-[H])-[H]):[#6](:[#6](:[#6]:1-[H])-[H])-[H]', '[#16](-[#6]1:[#6]2:[#6](:[#7]:[#6](:[#6](:[#6]:2-[H])-[H])-[H]):[#6](:[#6](:[#6]:1-[H])-[H])-[H])-[H]']","['InChI=1S/C9H7NS/c11-9-5-1-4-8-7(9)3-2-6-10-8/h1-6,10H', 'InChI=1S/C9H7NS/c11-9-5-1-4-8-7(9)3-2-6-10-8/h1-6,11H']","['QEYQMGRPZBVWBE-UHFFFAOYSA-N', 'XAXWWYIMGUQNMY-UHFFFAOYSA-N']"
Smethyl5mercaptoquinoline_cation->neut,4.5,5-(Methylthio)quinoline,doi.org/10.1039/JR9590002384,['[H]c1nc2c([H])c([H])c([H])c(SC([H])([H])[H])c2c([H])c1[H]'],['[#16](-[#6]1:[#6]2:[#6](:[#7]:[#6](:[#6](:[#6]:2-[H])-[H])-[H]):[#6](:[#6](:[#6]:1-[H])-[H])-[H])-[#6@@](-[H])(-[H])-[H]'],"['InChI=1S/C10H9NS/c1-12-10-6-2-5-9-8(10)4-3-7-11-9/h2-7H,1H3']",['BDLZEBCBFTUAHD-UHFFFAOYSA-N']
Nmethyl5mercaptoquinoline_cation->neut,3.22,1-methylquinoline-5-thione,doi.org/10.1039/JR9590002384,['[H]c1c([H])c2n(C([H])([H])[H])c([H])c([H])c([H])c-2c(=S)c1[H]'],['[#16]=[#6]1:[#6]2-[#6](:[#7](:[#6](:[#6](:[#6]:2-[H])-[H])-[H])-[#6@@](-[H])(-[H])-[H]):[#6](:[#6](:[#6]:1-[H])-[H])-[H]'],"['InChI=1S/C10H9NS/c1-11-7-3-4-8-9(11)5-2-6-10(8)12/h2-7H,1H3']",['YRKPYPYAOIVLAX-UHFFFAOYSA-N']
6mercaptoquinoline_cation->neut,3.95,6-mercaptoquinoline,doi.org/10.1039/JR9590002384,"['[H]Sc1c([H])c([H])c2nc([H])c([H])c([H])c2c1[H]', '[H]c1c([H])c2c([H])c(=S)c([H])c([H])[c-]2[n+]([H])c1[H]']","['[#7]1:[#6]2:[#6](:[#6](:[#6](:[#6](:[#6]:2-[H])-[H])-[#16]-[H])-[H]):[#6](:[#6](:[#6]:1-[H])-[H])-[H]', '[#7]1(:[#6-]2:[#6](:[#6](:[#6](:[#6](:[#6]:2-[H])-[H])=[#16])-[H]):[#6](:[#6](:[#6]:1-[H])-[H])-[H])-[H]']","['InChI=1S/C9H7NS/c11-8-3-4-9-7(6-8)2-1-5-10-9/h1-6,11H', 'InChI=1S/C9H7NS/c11-8-3-4-9-7(6-8)2-1-5-10-9/h1-6,10H']","['WKTZMPNNJIPTON-UHFFFAOYSA-N', 'LSLDMYQITYDTKC-UHFFFAOYSA-N']"
6mercaptoquinoline_neut->an,6.5,6-mercaptoquinoline,doi.org/10.1039/JR9590002384,"['[H]Sc1c([H])c([H])c2nc([H])c([H])c([H])c2c1[H]', '[H]c1c([H])c2c([H])c(=S)c([H])c([H])[c-]2[n+]([H])c1[H]']","['[#7]1:[#6]2:[#6](:[#6](:[#6](:[#6](:[#6]:2-[H])-[H])-[#16]-[H])-[H]):[#6](:[#6](:[#6]:1-[H])-[H])-[H]', '[#7]1(:[#6-]2:[#6](:[#6](:[#6](:[#6](:[#6]:2-[H])-[H])=[#16])-[H]):[#6](:[#6](:[#6]:1-[H])-[H])-[H])-[H]']","['InChI=1S/C9H7NS/c11-8-3-4-9-7(6-8)2-1-5-10-9/h1-6,11H', 'InChI=1S/C9H7NS/c11-8-3-4-9-7(6-8)2-1-5-10-9/h1-6,10H']","['WKTZMPNNJIPTON-UHFFFAOYSA-N', 'LSLDMYQITYDTKC-UHFFFAOYSA-N']"
Smethyl6mercaptoquinoline_cation->neut,4.12,6-(Methylthio)quinoline,doi.org/10.1039/JR9590002384,['[H]c1nc2c([H])c([H])c(SC([H])([H])[H])c([H])c2c([H])c1[H]'],['[#7]1:[#6]2:[#6](:[#6](:[#6](:[#6](:[#6]:2-[H])-[H])-[#16]-[#6@@](-[H])(-[H])-[H])-[H]):[#6](:[#6](:[#6]:1-[H])-[H])-[H]'],"['InChI=1S/C10H9NS/c1-12-9-4-5-10-8(7-9)3-2-6-11-10/h2-7H,1H3']",['RAPMRHUHGAGZEN-UHFFFAOYSA-N']
Nmethyl6mercaptoquinoline_cation->neut,4.75,1-methylquinoline-6-thione,doi.org/10.1039/JR9590002384,['[H]c1c([H])c2c([H])c(=S)c([H])c([H])[c-]2[n+](C([H])([H])[H])c1[H]'],['[#7]1(:[#6-]2:[#6](:[#6](:[#6](:[#6](:[#6]:2-[H])-[H])=[#16])-[H]):[#6](:[#6](:[#6]:1-[H])-[H])-[H])-[#6@@](-[H])(-[H])-[H]'],"['InChI=1S/C10H9NS/c1-11-6-2-3-8-7-9(12)4-5-10(8)11/h2-7H,1H3']",['FRVGVZIJVUMDBM-UHFFFAOYSA-N']
8mercaptoquinoline_cation->neut,2.05,8-mercaptoquinoline,doi.org/10.1039/JR9590002384,"['[H]Sc1c([H])c([H])c([H])c2c([H])c([H])c([H])nc12', '[H]c1c([H])c([S-])c2c(c1[H])c([H])c([H])c([H])[n+]2[H]']","['[#16](-[#6]1:[#6]2:[#7]:[#6](:[#6](:[#6](:[#6]:2:[#6](:[#6](:[#6]:1-[H])-[H])-[H])-[H])-[H])-[H])-[H]', '[#16]-[#6]1:[#6]2:[#7+](:[#6](:[#6](:[#6](:[#6]:2:[#6](:[#6](:[#6]:1-[H])-[H])-[H])-[H])-[H])-[H])-[H]']","['InChI=1S/C9H7NS/c11-8-5-1-3-7-4-2-6-10-9(7)8/h1-6,11H']",['MHTSJSRDFXZFHQ-UHFFFAOYSA-N']
8mercaptoquinoline_neut->an,8.29,8-mercaptoquinoline,doi.org/10.1039/JR9590002384,"['[H]Sc1c([H])c([H])c([H])c2c([H])c([H])c([H])nc12', '[H]c1c([H])c([S-])c2c(c1[H])c([H])c([H])c([H])[n+]2[H]']","['[#16](-[#6]1:[#6]2:[#7]:[#6](:[#6](:[#6](:[#6]:2:[#6](:[#6](:[#6]:1-[H])-[H])-[H])-[H])-[H])-[H])-[H]', '[#16]-[#6]1:[#6]2:[#7+](:[#6](:[#6](:[#6](:[#6]:2:[#6](:[#6](:[#6]:1-[H])-[H])-[H])-[H])-[H])-[H])-[H]']","['InChI=1S/C9H7NS/c11-8-5-1-3-7-4-2-6-10-9(7)8/h1-6,11H']",['MHTSJSRDFXZFHQ-UHFFFAOYSA-N']
Smethyl8mercptoquinoline_cation->neut,3.5,8-(Methylthio)quinoline,doi.org/10.1039/JR9590002384,['[H]c1nc2c(SC([H])([H])[H])c([H])c([H])c([H])c2c([H])c1[H]'],['[#16](-[#6]1:[#6]2:[#7]:[#6](:[#6](:[#6](:[#6]:2:[#6](:[#6](:[#6]:1-[H])-[H])-[H])-[H])-[H])-[H])-[#6@@](-[H])(-[H])-[H]'],"['InChI=1S/C10H9NS/c1-12-9-6-2-4-8-5-3-7-11-10(8)9/h2-7H,1H3']",['MDHLUPGPSGUEAV-UHFFFAOYSA-N']
1mercaptoisoquinoline_cation->neut,-1.9,1-mercaptoisoquinoline,doi.org/10.1039/JR9590002384,"['[H]Sc1nc([H])c([H])c2c([H])c([H])c([H])c([H])c12', '[H]c1c([H])c([H])c2c(=S)n([H])c([H])c([H])c2c1[H]']","['[#7]1:[#6](:[#6]2:[#6](:[#6](:[#6](:[#6](:[#6]:2-[H])-[H])-[H])-[H]):[#6](:[#6]:1-[H])-[H])-[#16]-[H]', '[#7]1(:[#6](:[#6]2:[#6](:[#6](:[#6](:[#6](:[#6]:2-[H])-[H])-[H])-[H]):[#6](:[#6]:1-[H])-[H])=[#16])-[H]']","['InChI=1S/C9H7NS/c11-9-8-4-2-1-3-7(8)5-6-10-9/h1-6H,(H,10,11)']",['IOYIDSMWPLNHRC-UHFFFAOYSA-N']
Smethyl1mercaptoisoquinoline_cation->neut,3.93,1-(Methylthio)isoquinoline,doi.org/10.1039/JR9590002384,['[H]c1nc(SC([H])([H])[H])c2c([H])c([H])c([H])c([H])c2c1[H]'],['[#7]1:[#6](:[#6]2:[#6](:[#6](:[#6](:[#6](:[#6]:2-[H])-[H])-[H])-[H]):[#6](:[#6]:1-[H])-[H])-[#16]-[#6@@](-[H])(-[H])-[H]'],"['InChI=1S/C10H9NS/c1-12-10-9-5-3-2-4-8(9)6-7-11-10/h2-7H,1H3']",['JXBLZDYHEXHSLA-UHFFFAOYSA-N']
Nmethyl1mercaptoisoquinoline_cation->neut,-2.13,1-methylisoquinoline-1-thione,doi.org/10.1039/JR9590002384,['[H]c1c([H])c([H])c2c(=S)n(C([H])([H])[H])c([H])c([H])c2c1[H]'],['[#7]1(:[#6](:[#6]2:[#6](:[#6](:[#6](:[#6](:[#6]:2-[H])-[H])-[H])-[H]):[#6](:[#6]:1-[H])-[H])=[#16])-[#6@@](-[H])(-[H])-[H]'],"['InChI=1S/C10H9NS/c1-11-7-6-8-4-2-3-5-9(8)10(11)12/h2-7H,1H3']",['IEXYLQOPBXUDSK-UHFFFAOYSA-N']
3mercaptoisoquinoline_cation->neut,0.39,3-mercaptoisoquinoline,doi.org/10.1039/JR9590002384,"['[H]c1c([H])c([H])c2c([H])n([H])c(=S)c([H])c2c1[H]', '[H]Sc1nc([H])c2c([H])c([H])c([H])c([H])c2c1[H]']","['[#16]=[#6]1:[#7](:[#6](:[#6]2:[#6](:[#6]:1-[H]):[#6](:[#6](:[#6](:[#6]:2-[H])-[H])-[H])-[H])-[H])-[H]', '[#16](-[#6]1:[#7]:[#6](:[#6]2:[#6](:[#6]:1-[H]):[#6](:[#6](:[#6](:[#6]:2-[H])-[H])-[H])-[H])-[H])-[H]']","['InChI=1S/C9H7NS/c11-9-5-7-3-1-2-4-8(7)6-10-9/h1-6H,(H,10,11)']",['WRIZFUVYABPOLN-UHFFFAOYSA-N']