compn,pKa,correct name,reference,smiles,smarts,inchi,inchiKey
4butyrobetaine_cation->neut,3.94,4-butyrobetaine,Lange's handbook of chemistry,['[H]C([H])(C(=O)[O-])C([H])([H])C([H])([H])[N+](C([H])([H])[H])(C([H])([H])[H])C([H])([H])[H]'],['[#8]=[#6](-[#8-])-[#6@@](-[#6@](-[#6@](-[#7@@+](-[#6@@](-[H])(-[H])-[H])(-[#6@@](-[H])(-[H])-[H])-[#6@@](-[H])(-[H])-[H])(-[H])-[H])(-[H])-[H])(-[H])-[H]'],"['InChI=1S/C7H15NO2/c1-8(2,3)6-4-5-7(9)10/h4-6H2,1-3H3']",['JHPNVNIEXXLNTR-UHFFFAOYSA-N']
4chloro26dinitrophenol_neut->an,2.97,"4-chloro-2,6-dinitrophenol",Lange's handbook of chemistry,['[H]Oc1c([N+](=O)[O-])c([H])c(Cl)c([H])c1[N+](=O)[O-]'],['[#6]1(:[#6](:[#6](:[#6](:[#6](:[#6]:1-[#8]-[H])-[#7+](=[#8])-[#8-])-[H])-[#17])-[H])-[#7+](=[#8])-[#8-]'],"['InChI=1S/C6H3ClN2O5/c7-3-1-4(8(11)12)6(10)5(2-3)9(13)14/h1-2,10H']",['KESYALTWUAFAAC-UHFFFAOYSA-N']
4chloro2nitroaniline_cation->neut,-1.1,4-chloro-2-nitroaniline,Lange's handbook of chemistry,['[H]c1c([H])c(N([H])[H])c([N+](=O)[O-])c([H])c1Cl'],['[#6]1(:[#6](:[#6](:[#6](:[#6](:[#6]:1-[#17])-[H])-[H])-[#7](-[H])-[H])-[#7+](=[#8])-[#8-])-[H]'],"['InChI=1S/C6H5ClN2O2/c7-4-1-2-5(8)6(3-4)9(10)11/h1-3H,8H2']",['PBGKNXWGYQPUJK-UHFFFAOYSA-N']
4chloro3methylphenol_neut->an,9.55,4-chloro-3-methylphenol,Lange's handbook of chemistry,['[H]Oc1c([H])c([H])c(Cl)c(C([H])([H])[H])c1[H]'],['[#6]1(:[#6](:[#6](:[#6](:[#6](:[#6]:1-[#8]-[H])-[H])-[H])-[#17])-[#6@@](-[H])(-[H])-[H])-[H]'],"['InChI=1S/C7H7ClO/c1-5-4-6(9)2-3-7(5)8/h2-4,9H,1H3']",['CFKMVGJGLGKFKI-UHFFFAOYSA-N']
4chloronmethylaniline_cation->neut,3.9,4-chloro-n-methylaniline,Lange's handbook of chemistry,['[H]c1c([H])c(N([H])C([H])([H])[H])c([H])c([H])c1Cl'],['[#17]-[#6]1:[#6](:[#6](:[#6](-[#7](-[#6@](-[H])(-[H])-[H])-[H]):[#6](:[#6]:1-[H])-[H])-[H])-[H]'],"['InChI=1S/C7H8ClN/c1-9-7-4-2-6(8)3-5-7/h2-5,9H,1H3']",['XCEYKKJMLOFDSS-UHFFFAOYSA-N']
4chlorootoluidine_cation->neut,3.39,4-chloro-o-toluidine,Lange's handbook of chemistry,['[H]c1c([H])c(N([H])[H])c(C([H])([H])[H])c([H])c1Cl'],['[#6]1(:[#6](:[#6](:[#6](:[#6](:[#6]:1-[#17])-[H])-[H])-[#7](-[H])-[H])-[#6@@](-[H])(-[H])-[H])-[H]'],"['InChI=1S/C7H8ClN/c1-5-4-6(8)2-3-7(5)9/h2-4H,9H2,1H3']",['CXNVOWPRHWWCQR-UHFFFAOYSA-N']
4chlorophenylacetic_neut->an,4.19,4-chlorophenylacetic acid,Lange's handbook of chemistry,['[H]OC(=O)C([H])([H])c1c([H])c([H])c(Cl)c([H])c1[H]'],['[#17]-[#6]1:[#6](:[#6](:[#6](-[#6@](-[#6](-[#8]-[H])=[#8])(-[H])-[H]):[#6](:[#6]:1-[H])-[H])-[H])-[H]'],"['InChI=1S/C8H7ClO2/c9-7-3-1-6(2-4-7)5-8(10)11/h1-4H,5H2,(H,10,11)']",['CDPKJZJVTHSESZ-UHFFFAOYSA-N']
4chloropyridine_cation->neut,3.83,4-chloropyridine,Lange's handbook of chemistry,['[H]c1nc([H])c([H])c(Cl)c1[H]'],['[#6]1(:[#6](-[H]):[#7]:[#6](:[#6](:[#6]:1-[#17])-[H])-[H])-[H]'],['InChI=1S/C5H4ClN/c6-5-1-3-7-4-2-5/h1-4H'],['PVMNPAUTCMBOMO-UHFFFAOYSA-N']
4chlorothiophenol_neut->an,5.9,4-chlorothiophenol,Lange's handbook of chemistry,['[H]Sc1c([H])c([H])c(Cl)c([H])c1[H]'],['[#6]1(:[#6](:[#6](:[#6](:[#6](:[#6]:1-[#16]-[H])-[H])-[H])-[#17])-[H])-[H]'],"['InChI=1S/C6H5ClS/c7-5-1-3-6(8)4-2-5/h1-4,8H']",['VZXOZSQDJJNBRC-UHFFFAOYSA-N']
4cyano26dimethylphenol_neut->an,8.27,"4-cyano-2,6-dimethylphenol",Lange's handbook of chemistry,['[H]Oc1c(C([H])([H])[H])c([H])c(C#N)c([H])c1C([H])([H])[H]'],['[#6]1(:[#6](:[#6](:[#6](:[#6](:[#6]:1-[#6]#[#7])-[H])-[#6@@](-[H])(-[H])-[H])-[#8]-[H])-[#6@@](-[H])(-[H])-[H])-[H]'],"['InChI=1S/C9H9NO/c1-6-3-8(5-10)4-7(2)9(6)11/h3-4,11H,1-2H3']",['WFYGXOWFEIOHCZ-UHFFFAOYSA-N']
4cyano35dimethylphenol_neut->an,8.21,"4-cyano-3,5-dimethylphenol",Lange's handbook of chemistry,['[H]Oc1c([H])c(C([H])([H])[H])c(C#N)c(C([H])([H])[H])c1[H]'],['[#6]1(:[#6](:[#6](:[#6](:[#6](:[#6]:1-[#8]-[H])-[H])-[#6@@](-[H])(-[H])-[H])-[#6]#[#7])-[#6@@](-[H])(-[H])-[H])-[H]'],"['InChI=1S/C9H9NO/c1-6-3-8(11)4-7(2)9(6)5-10/h3-4,11H,1-2H3']",['KZEJTKHRBQWACL-UHFFFAOYSA-N']
4cyanopyridine_cation->neut,1.9,4-cyanopyridine,Lange's handbook of chemistry,['[H]c1nc([H])c([H])c(C#N)c1[H]'],['[#6]1(:[#6](-[H]):[#7]:[#6](:[#6](:[#6]:1-[#6]#[#7])-[H])-[H])-[H]'],['InChI=1S/C6H4N2/c7-5-6-1-3-8-4-2-6/h1-4H'],['GPHQHTOMRSGBNZ-UHFFFAOYSA-N']
4fluoroaniline_cation->neut,4.65,4-fluoroaniline,Lange's handbook of chemistry,['[H]c1c([H])c(N([H])[H])c([H])c([H])c1F'],['[#6]1(:[#6](:[#6](:[#6](:[#6](:[#6]:1-[H])-[#9])-[H])-[H])-[#7](-[H])-[H])-[H]'],"['InChI=1S/C6H6FN/c7-5-1-3-6(8)4-2-5/h1-4H,8H2']",['KRZCOLNOCZKSDF-UHFFFAOYSA-N']
4hydroxybenzaldehyde_neut->an,7.62,4-hydroxybenzaldehyde,Lange's handbook of chemistry,['[H]Oc1c([H])c([H])c(C([H])=O)c([H])c1[H]'],['[#6]1(:[#6](:[#6](:[#6](:[#6](:[#6]:1-[#8]-[H])-[H])-[H])-[#6](=[#8])-[H])-[H])-[H]'],"['InChI=1S/C7H6O2/c8-5-6-1-3-7(9)4-2-6/h1-5,9H']",['RGHHSNMVTDWUBI-UHFFFAOYSA-N']
4hydroxyisoquinoline_cation->neut,4.77,4-hydroxyisoquinoline,10.1002/jcc.23068,"['[H]c1c([H])c([H])c2c([H])[n+]([H])c([H])c([O-])c2c1[H]', '[H]Oc1c([H])nc([H])c2c([H])c([H])c([H])c([H])c12']","['[#6]1(:[#6](:[#6]2:[#6](:[#6](:[#6]:1-[H])-[H]):[#6](:[#6](-[H]):[#7+](:[#6]:2-[H])-[H])-[#8-])-[H])-[H]', '[#6]1(:[#6](:[#6]2:[#6](:[#6](:[#6]:1-[H])-[H]):[#6](:[#6](-[H]):[#7]:[#6]:2-[H])-[#8]-[H])-[H])-[H]']","['InChI=1S/C9H7NO/c11-9-6-10-5-7-3-1-2-4-8(7)9/h1-6,11H']",['DXTUTXYCHFWRQC-UHFFFAOYSA-N']
4hydroxypteridine_cation->neut,-0.17,4-hydroxypteridine,doi.org/10.1039/JR9580000674,['[H]c1nc2nc([H])n([H])c(=O)c2nc1[H]'],['[#8]=[#6]1:[#7](:[#6](:[#7]:[#6]2:[#7]:[#6](:[#6](:[#7]:[#6]:2:1)-[H])-[H])-[H])-[H]'],"['InChI=1S/C6H4N4O/c11-6-4-5(9-3-10-6)8-2-1-7-4/h1-3H,(H,8,9,10,11)']",['UWWUXWWWOUNMKW-UHFFFAOYSA-N']
4hydroxypteridine_neut->an,7.89,4-hydroxypteridine,Lange's handbook of chemistry,['[H]c1nc2nc([H])n([H])c(=O)c2nc1[H]'],['[#8]=[#6]1:[#7](:[#6](:[#7]:[#6]2:[#7]:[#6](:[#6](:[#7]:[#6]:2:1)-[H])-[H])-[H])-[H]'],"['InChI=1S/C6H4N4O/c11-6-4-5(9-3-10-6)8-2-1-7-4/h1-3H,(H,8,9,10,11)']",['UWWUXWWWOUNMKW-UHFFFAOYSA-N']
4hydroxypyridine_cation->neut,3.23,4-hydroxypyridine,Lange's handbook of chemistry,"['[H]c1c([H])n([H])c([H])c([H])c1=O', '[H]Oc1c([H])c([H])nc([H])c1[H]']","['[#6]1(:[#6](-[H]):[#7](:[#6](:[#6](:[#6]:1=[#8])-[H])-[H])-[H])-[H]', '[#6]1(:[#6](-[H]):[#7]:[#6](:[#6](:[#6]:1-[#8]-[H])-[H])-[H])-[H]']","['InChI=1S/C5H5NO/c7-5-1-3-6-4-2-5/h1-4H,(H,6,7)']",['GCNTZFIIOFTKIY-UHFFFAOYSA-N']
4hydroxypyridine_neut->an,11.09,4-hydroxypyridine,Lange's handbook of chemistry,"['[H]c1c([H])n([H])c([H])c([H])c1=O', '[H]Oc1c([H])c([H])nc([H])c1[H]']","['[#6]1(:[#6](-[H]):[#7](:[#6](:[#6](:[#6]:1=[#8])-[H])-[H])-[H])-[H]', '[#6]1(:[#6](-[H]):[#7]:[#6](:[#6](:[#6]:1-[#8]-[H])-[H])-[H])-[H]']","['InChI=1S/C5H5NO/c7-5-1-3-6-4-2-5/h1-4H,(H,6,7)']",['GCNTZFIIOFTKIY-UHFFFAOYSA-N']
4hydroxyquinoline_cation->neut,2.27,4-hydroxyisoquinoline,Lange's handbook of chemistry,"['[H]c1c([H])c([H])c2c(c1[H])c(=O)c([H])c([H])n2[H]', '[H]Oc1c([H])c([H])nc2c([H])c([H])c([H])c([H])c12']","['[#6]1(:[#6](:[#6]2:[#6](:[#6](:[#6]:1-[H])-[H]):[#6](:[#6](-[H]):[#6](-[H]):[#7]:2-[H])=[#8])-[H])-[H]', '[#6]1(:[#6](:[#6]2:[#6](:[#6](:[#6]:1-[H])-[H]):[#6](:[#6](-[H]):[#6](-[H]):[#7]:2)-[#8]-[H])-[H])-[H]']","['InChI=1S/C9H7NO/c11-9-5-6-10-8-4-2-1-3-7(8)9/h1-6H,(H,10,11)']",['PMZDQRJGMBOQBF-UHFFFAOYSA-N']
4hydroxyquinoline_neut->an,11.25,4-hydroxyisoquinoline,Lange's handbook of chemistry,"['[H]c1c([H])c([H])c2c(c1[H])c(=O)c([H])c([H])n2[H]', '[H]Oc1c([H])c([H])nc2c([H])c([H])c([H])c([H])c12']","['[#6]1(:[#6](:[#6]2:[#6](:[#6](:[#6]:1-[H])-[H]):[#6](:[#6](-[H]):[#6](-[H]):[#7]:2-[H])=[#8])-[H])-[H]', '[#6]1(:[#6](:[#6]2:[#6](:[#6](:[#6]:1-[H])-[H]):[#6](:[#6](-[H]):[#6](-[H]):[#7]:2)-[#8]-[H])-[H])-[H]']","['InChI=1S/C9H7NO/c11-9-5-6-10-8-4-2-1-3-7(8)9/h1-6H,(H,10,11)']",['PMZDQRJGMBOQBF-UHFFFAOYSA-N']
4iodoaniline_cation->neut,3.82,4-iodoaniline,Lange's handbook of chemistry,['[H]c1c([H])c(N([H])[H])c([H])c([H])c1I'],['[#6]1(:[#6](:[#6](:[#6](:[#6](:[#6]:1-[H])-[H])-[#53])-[H])-[H])-[#7](-[H])-[H]'],"['InChI=1S/C6H6IN/c7-5-1-3-6(8)4-2-5/h1-4H,8H2']",['VLVCDUSVTXIWGW-UHFFFAOYSA-N']
4iodobenzoic_neut->an,4,4-iodobenzoic acid,Lange's handbook of chemistry,['[H]OC(=O)c1c([H])c([H])c(I)c([H])c1[H]'],['[#6]1(:[#6](:[#6](:[#6](:[#6](:[#6]:1-[#6](=[#8])-[#8]-[H])-[H])-[H])-[#53])-[H])-[H]'],"['InChI=1S/C7H5IO2/c8-6-3-1-5(2-4-6)7(9)10/h1-4H,(H,9,10)']",['GHICCUXQJBDNRN-UHFFFAOYSA-N']
4iodophenol_neut->an,9.2,4 iodophenol,Lange's handbook of chemistry,['[H]Oc1c([H])c([H])c(I)c([H])c1[H]'],['[#6]1(:[#6](:[#6](:[#6](:[#6](:[#6]:1-[H])-[#8]-[H])-[H])-[H])-[#53])-[H]'],"['InChI=1S/C6H5IO/c7-5-1-3-6(8)4-2-5/h1-4,8H']",['VSMDINRNYYEDRN-UHFFFAOYSA-N']
4iodopyridine_cation->neut,4.02,4-iodopyridine,Lange's handbook of chemistry,['[H]c1nc([H])c([H])c(I)c1[H]'],['[#6]1(:[#6](:[#6](:[#6](-[H]):[#7]:[#6]:1-[H])-[H])-[#53])-[H]'],['InChI=1S/C5H4IN/c6-5-1-3-7-4-2-5/h1-4H'],['RTLUPHDWSUGAOS-UHFFFAOYSA-N']
4isopropylpyridine_cation->neut,6.02,4-isopropylpyridine,Lange's handbook of chemistry,['[H]c1nc([H])c([H])c(C([H])(C([H])([H])[H])C([H])([H])[H])c1[H]'],['[#6]1(:[#6](-[H]):[#7]:[#6](:[#6](:[#6]:1-[#6@](-[#6@@](-[H])(-[H])-[H])(-[#6@@](-[H])(-[H])-[H])-[H])-[H])-[H])-[H]'],"['InChI=1S/C8H11N/c1-7(2)8-3-5-9-6-4-8/h3-7H,1-2H3']",['FRGXNJWEDDQLFH-UHFFFAOYSA-N']
4mercaptopyridine_cation->neut,1.43,4-mercaptopyridine,Lange's handbook of chemistry,"['[H]c1c([H])n([H])c([H])c([H])c1=S', '[H]Sc1c([H])c([H])nc([H])c1[H]']","['[#16]=[#6]1:[#6](:[#6](:[#7](:[#6](:[#6]:1-[H])-[H])-[H])-[H])-[H]', '[#16](-[#6]1:[#6](:[#6](:[#7]:[#6](:[#6]:1-[H])-[H])-[H])-[H])-[H]']","['InChI=1S/C5H5NS/c7-5-1-3-6-4-2-5/h1-4H,(H,6,7)']",['FHTDDANQIMVWKZ-UHFFFAOYSA-N']
4mercaptopyridine_neut->an,8.86,4-mercaptopyridine,Lange's handbook of chemistry,"['[H]c1c([H])n([H])c([H])c([H])c1=S', '[H]Sc1c([H])c([H])nc([H])c1[H]']","['[#16]=[#6]1:[#6](:[#6](:[#7](:[#6](:[#6]:1-[H])-[H])-[H])-[H])-[H]', '[#16](-[#6]1:[#6](:[#6](:[#7]:[#6](:[#6]:1-[H])-[H])-[H])-[H])-[H]']","['InChI=1S/C5H5NS/c7-5-1-3-6-4-2-5/h1-4H,(H,6,7)']",['FHTDDANQIMVWKZ-UHFFFAOYSA-N']
4mercaptoquinoline_cation->neut,0.77,4-mercaptoquinoline,Lange's handbook of chemistry,"['[H]c1c([H])c([H])c2c(c1[H])c(=S)c([H])c([H])n2[H]', '[H]Sc1c([H])c([H])nc2c([H])c([H])c([H])c([H])c12']","['[#16]=[#6]1:[#6]2:[#6](:[#7](:[#6](:[#6]:1-[H])-[H])-[H]):[#6](:[#6](:[#6](:[#6]:2-[H])-[H])-[H])-[H]', '[#16](-[#6]1:[#6]2:[#6](:[#7]:[#6](:[#6]:1-[H])-[H]):[#6](:[#6](:[#6](:[#6]:2-[H])-[H])-[H])-[H])-[H]']","['InChI=1S/C9H7NS/c11-9-5-6-10-8-4-2-1-3-7(8)9/h1-6H,(H,10,11)']",['ROYCCMJSURLMLI-UHFFFAOYSA-N']
4mercaptoquinoline_neut->an,8.83,4-mercaptoquinoline,Lange's handbook of chemistry,"['[H]c1c([H])c([H])c2c(c1[H])c(=S)c([H])c([H])n2[H]', '[H]Sc1c([H])c([H])nc2c([H])c([H])c([H])c([H])c12']","['[#16]=[#6]1:[#6]2:[#6](:[#7](:[#6](:[#6]:1-[H])-[H])-[H]):[#6](:[#6](:[#6](:[#6]:2-[H])-[H])-[H])-[H]', '[#16](-[#6]1:[#6]2:[#6](:[#7]:[#6](:[#6]:1-[H])-[H]):[#6](:[#6](:[#6](:[#6]:2-[H])-[H])-[H])-[H])-[H]']","['InChI=1S/C9H7NS/c11-9-5-6-10-8-4-2-1-3-7(8)9/h1-6H,(H,10,11)']",['ROYCCMJSURLMLI-UHFFFAOYSA-N']
4methoxycarbonylpyridine_cation->neut,3.26,4-methoxycarbonylpyridine,Lange's handbook of chemistry,['[H]c1nc([H])c([H])c(C(=O)OC([H])([H])[H])c1[H]'],['[#6]1(:[#6](:[#6](:[#6](-[H]):[#7]:[#6]:1-[H])-[H])-[#6](=[#8])-[#8]-[#6@@](-[H])(-[H])-[H])-[H]'],"['InChI=1S/C7H7NO2/c1-10-7(9)6-2-4-8-5-3-6/h2-5H,1H3']",['OLXYLDUSSBULGU-UHFFFAOYSA-N']
4methylpiperidine_cation->neut,11.23,4-methylpiperidine,Lange's handbook of chemistry,['[H]N1C([H])([H])C([H])([H])C([H])(C([H])([H])[H])C([H])([H])C1([H])[H]'],['[#7]1(-[#6@](-[#6@@](-[#6@@](-[#6@](-[#6@@]-1(-[H])-[H])(-[H])-[H])(-[#6@@](-[H])(-[H])-[H])-[H])(-[H])-[H])(-[H])-[H])-[H]'],"['InChI=1S/C6H13N/c1-6-2-4-7-5-3-6/h6-7H,2-5H2,1H3']",['UZOFELREXGAFOI-UHFFFAOYSA-N']
4methoxypyridazine_cation->neut,3.68,4-methoxypyridazine,10.1002/jcc.23068,['[H]c1nnc([H])c(OC([H])([H])[H])c1[H]'],['[#6]1(:[#6](-[H]):[#7]:[#7]:[#6](:[#6]:1-[H])-[H])-[#8]-[#6@@](-[H])(-[H])-[H]'],"['InChI=1S/C5H6N2O/c1-8-5-2-3-6-7-4-5/h2-4H,1H3']",['NSGNREBTEFKPIL-UHFFFAOYSA-N']
4methylpyridine_cation->neut,6,4-methylpyridine,Lange's handbook of chemistry,['[H]c1nc([H])c([H])c(C([H])([H])[H])c1[H]'],['[#6]1(:[#6](-[H]):[#7]:[#6](:[#6](:[#6]:1-[#6@@](-[H])(-[H])-[H])-[H])-[H])-[H]'],"['InChI=1S/C6H7N/c1-6-2-4-7-5-3-6/h2-5H,1H3']",['FKNQCJSGGFJEIZ-UHFFFAOYSA-N']
4methylpyridinenoxyde_cation->neut,1.26,4-methylpyridine 1-oxide,Lange's handbook of chemistry,['[H]c1c(C([H])([H])[H])c([H])c([H])[n+]([O-])c1[H]'],['[#6]1(:[#6](-[H]):[#7+](:[#6](:[#6](:[#6]:1-[#6@@](-[H])(-[H])-[H])-[H])-[H])-[#8-])-[H]'],"['InChI=1S/C6H7NO/c1-6-2-4-7(8)5-3-6/h2-5H,1H3']",['IWYYIZOHWPCALJ-UHFFFAOYSA-N']
4methylpyrimidine_cation->neut,1.95,4-methylpyrimidine,10.1002/jcc.23068,['[H]c1nc([H])c([H])c(C([H])([H])[H])n1'],['[#6]1(:[#6](:[#6](:[#7]:[#6](-[H]):[#7]:1)-[#6@@](-[H])(-[H])-[H])-[H])-[H]'],"['InChI=1S/C5H6N2/c1-5-2-3-6-4-7-5/h2-4H,1H3']",['LVILGAOSPDLNRM-UHFFFAOYSA-N']
4methylquinazoline_cation->neut,2.8,4-methylquinazoline,pubs.rsc.org/en/content/articlepdf/1966/j2/j29660000436,['[H]c1nc(C([H])([H])[H])c2c([H])c([H])c([H])c([H])c2n1'],['[#6]1(:[#6](:[#6]2:[#6](:[#6](:[#6]:1-[H])-[H]):[#7]:[#6](-[H]):[#7]:[#6]:2-[#6@@](-[H])(-[H])-[H])-[H])-[H]'],"['InChI=1S/C9H8N2/c1-7-8-4-2-3-5-9(8)11-6-10-7/h2-6H,1H3']",['JWEOEZZCZCCPJL-UHFFFAOYSA-N']
4methylquinoline_cation->neut,5.5,4-methylquinoline,10.1002/jcc.23068,['[H]c1nc2c([H])c([H])c([H])c([H])c2c(C([H])([H])[H])c1[H]'],['[#6]1(:[#6](:[#6]2:[#6](:[#6](:[#6]:1-[H])-[H]):[#7]:[#6](:[#6](:[#6]:2-[#6@@](-[H])(-[H])-[H])-[H])-[H])-[H])-[H]'],"['InChI=1S/C10H9N/c1-8-6-7-11-10-5-3-2-4-9(8)10/h2-7H,1H3']",['MUDSDYNRBDKLGK-UHFFFAOYSA-N']
4methylsulfonylaniline_cation->neut,1.48,4-methylsulfonylaniline,Lange's handbook of chemistry,['[H]c1c([H])c(S(=O)(=O)C([H])([H])[H])c([H])c([H])c1N([H])[H]'],['[#6]1(:[#6](:[#6](:[#6](:[#6](:[#6]:1-[#16@](=[#8])(=[#8])-[#6@@](-[H])(-[H])-[H])-[H])-[H])-[#7](-[H])-[H])-[H])-[H]'],"['InChI=1S/C7H9NO2S/c1-11(9,10)7-4-2-6(8)3-5-7/h2-5H,8H2,1H3']",['XJEVFFNOMKXBLU-UHFFFAOYSA-N']
4methylsulfonylbenzoic_neut->an,3.64,4-methylsulfonylbenzoic acid,Lange's handbook of chemistry,['[H]OC(=O)c1c([H])c([H])c(S(=O)(=O)C([H])([H])[H])c([H])c1[H]'],['[#6]1(:[#6](:[#6](:[#6](:[#6](:[#6]:1-[#16@](=[#8])(=[#8])-[#6@@](-[H])(-[H])-[H])-[H])-[H])-[#6](=[#8])-[#8]-[H])-[H])-[H]'],"['InChI=1S/C8H8O4S/c1-13(11,12)7-4-2-6(3-5-7)8(9)10/h2-5H,1H3,(H,9,10)']",['AJBWNNKDUMXZLM-UHFFFAOYSA-N']
4methylsulfonylphenol_neut->an,7.83,4-methylsulfonylphenol,Lange's handbook of chemistry,['[H]Oc1c([H])c([H])c(S(=O)(=O)C([H])([H])[H])c([H])c1[H]'],['[#6]1(:[#6](:[#6](:[#6](:[#6](:[#6]:1-[#16@](=[#8])(=[#8])-[#6@@](-[H])(-[H])-[H])-[H])-[H])-[#8]-[H])-[H])-[H]'],"['InChI=1S/C7H8O3S/c1-11(9,10)7-4-2-6(8)3-5-7/h2-5,8H,1H3']",['KECCFSZFXLAGJS-UHFFFAOYSA-N']
4methylthiazole_cation->neut,3.16,4-methylthiazole,Lange's handbook of chemistry,['[H]c1nc(C([H])([H])[H])c([H])s1'],['[#16]1:[#6](:[#6](:[#7]:[#6]:1-[H])-[#6@@](-[H])(-[H])-[H])-[H]'],"['InChI=1S/C4H5NS/c1-4-2-6-3-5-4/h2-3H,1H3']",['QMHIMXFNBOYPND-UHFFFAOYSA-N']
4methylthiopyridazine_cation->neut,3.25,4-(methylthio)pyridazine,10.1002/jcc.23068,['[H]c1nnc([H])c(SC([H])([H])[H])c1[H]'],['[#6]1(:[#6](:[#6](:[#6](-[H]):[#7]:[#7]:1)-[#16]-[#6@@](-[H])(-[H])-[H])-[H])-[H]'],"['InChI=1S/C5H6N2S/c1-8-5-2-3-6-7-4-5/h2-4H,1H3']",['KSGKDNUWPMCTAB-UHFFFAOYSA-N']
4mnitrophenylpyridine_cation->neut,4.87,4-m-nitrophenylpyridine,10.1002/jcc.23068,['[H]c1nc([H])c([H])c(-c2c([H])c([H])c([H])c([N+](=O)[O-])c2[H])c1[H]'],['[#6]1(:[#6](:[#6](-[H]):[#7]:[#6](:[#6]:1-[H])-[H])-[H])-[#6]1:[#6](:[#6](:[#6](:[#6](:[#6]:1-[H])-[#7+](=[#8])-[#8-])-[H])-[H])-[H]'],['InChI=1S/C11H8N2O2/c14-13(15)11-3-1-2-10(8-11)9-4-6-12-7-5-9/h1-8H'],['AFVBDOPDKXFXTN-UHFFFAOYSA-N']
4nitroimidazole_cation->neut,-0.16,4-nitroimidazole,10.1002/ejoc.201700749,"['[H]c1nc([H])n([H])c1[N+](=O)[O-]', '[H]c1nc([N+](=O)[O-])c([H])n1[H]']","['[#6]1(:[#7]:[#6](:[#6](:[#7]:1-[H])-[#7+](=[#8])-[#8-])-[H])-[H]', '[#6]1(:[#7](:[#6](:[#6](:[#7]:1)-[#7+](=[#8])-[#8-])-[H])-[H])-[H]']","['InChI=1S/C3H3N3O2/c7-6(8)3-1-4-2-5-3/h1-2H,(H,4,5)']",['VYDWQPKRHOGLPA-UHFFFAOYSA-N']
4nitroisoquinoline_cation->neut,1.35,4-nitroisoquinoline,10.1002/jcc.23068,['[H]c1nc([H])c2c([H])c([H])c([H])c([H])c2c1[N+](=O)[O-]'],['[#6]1(:[#6](:[#6]2:[#6](:[#6](:[#6]:1-[H])-[H]):[#6](:[#6](-[H]):[#7]:[#6]:2-[H])-[#7+](=[#8])-[#8-])-[H])-[H]'],['InChI=1S/C9H6N2O2/c12-11(13)9-6-10-5-7-3-1-2-4-8(7)9/h1-6H'],['ZSKGNSYZTHMDSD-UHFFFAOYSA-N']
4nitropyridine_cation->neut,1.23,4-nitropyridine,Lange's handbook of chemistry,['[H]c1nc([H])c([H])c([N+](=O)[O-])c1[H]'],['[#6]1(:[#6](-[H]):[#7]:[#6](:[#6](:[#6]:1-[#7+](=[#8])-[#8-])-[H])-[H])-[H]'],['InChI=1S/C5H4N2O2/c8-7(9)5-1-3-6-4-2-5/h1-4H'],['FEXIEMAAKBNTFK-UHFFFAOYSA-N']
4pchlorocinnamic_neut->an,4.41,4-chlorocinnamic acid,Lange's handbook of chemistry,['[H]OC(=O)/C([H])=C(\\[H])c1c([H])c([H])c(Cl)c([H])c1[H]'],['[#8](-[#6](=[#8])/[#6](=[#6](/[#6]1:[#6](:[#6](:[#6](:[#6](:[#6]:1-[H])-[H])-[#17])-[H])-[H])-[H])-[H])-[H]'],"['InChI=1S/C9H7ClO2/c10-8-4-1-7(2-5-8)3-6-9(11)12/h1-6H,(H,11,12)/b6-3+']",['GXLIFJYFGMHYDY-ZZXKWVIFSA-N']
4phenylpyridine_cation->neut,5.55,4-phenylpyridine,10.1002/jcc.23068,['[H]c1nc([H])c([H])c(-c2c([H])c([H])c([H])c([H])c2[H])c1[H]'],['[#6]1(:[#6](:[#6](-[H]):[#7]:[#6](:[#6]:1-[H])-[H])-[H])-[#6]1:[#6](:[#6](:[#6](:[#6](:[#6]:1-[H])-[H])-[H])-[H])-[H]'],['InChI=1S/C11H9N/c1-2-4-10(5-3-1)11-6-8-12-9-7-11/h1-9H'],['JVZRCNQLWOELDU-UHFFFAOYSA-N']
4phenylurazole_neut->an,5.2,4-phenylurazole,10.1021/jo00019a034,"['[H]Oc1nnc(O[H])n1-c1c([H])c([H])c([H])c([H])c1[H]', '[H]Oc1nn([H])c(=O)n1-c1c([H])c([H])c([H])c([H])c1[H]', '[H]c1c([H])c([H])c(-n2c(=O)n([H])n([H])c2=O)c([H])c1[H]']","['[#6]1(:[#7](:[#6](:[#7]:[#7]:1)-[#8]-[H])-[#6]1:[#6](:[#6](:[#6](:[#6](:[#6]:1-[H])-[H])-[H])-[H])-[H])-[#8]-[H]', '[#6]1(:[#7](:[#6](:[#7]:[#7]:1-[H])-[#8]-[H])-[#6]1:[#6](:[#6](:[#6](:[#6](:[#6]:1-[H])-[H])-[H])-[H])-[H])=[#8]', '[#6]1(:[#7](:[#6](:[#7](:[#7]:1-[H])-[H])=[#8])-[#6]1:[#6](:[#6](:[#6](:[#6](:[#6]:1-[H])-[H])-[H])-[H])-[H])=[#8]']","['InChI=1S/C8H7N3O2/c12-7-9-10-8(13)11(7)6-4-2-1-3-5-6/h1-5H,(H,9,12)(H,10,13)']",['GOSUFRDROXZXLN-UHFFFAOYSA-N']
4pnitrophenylpyridine_cation->neut,4.87,4-(p-nitrophenyl)pyridine,10.1002/jcc.23068,['[H]c1nc([H])c([H])c(-c2c([H])c([H])c([N+](=O)[O-])c([H])c2[H])c1[H]'],['[#6]1(:[#6](:[#6](-[H]):[#7]:[#6](:[#6]:1-[H])-[H])-[H])-[#6]1:[#6](:[#6](:[#6](:[#6](:[#6]:1-[H])-[H])-[#7+](=[#8])-[#8-])-[H])-[H]'],['InChI=1S/C11H8N2O2/c14-13(15)11-3-1-9(2-4-11)10-5-7-12-8-6-10/h1-8H'],['XBXSGMVYJPSYLI-UHFFFAOYSA-N']
4sulfamylbenzoic_neut->an,3.47,4-sulfamoylbenzoic acid,Lange's handbook of chemistry,['[H]OC(=O)c1c([H])c([H])c(S(=O)(=O)N([H])[H])c([H])c1[H]'],['[#8]=[#16@](=[#8])(-[#7](-[H])-[H])-[#6]1:[#6](:[#6](:[#6](:[#6](:[#6]:1-[H])-[H])-[#6](-[#8]-[H])=[#8])-[H])-[H]'],"['InChI=1S/C7H7NO4S/c8-13(11,12)6-3-1-5(2-4-6)7(9)10/h1-4H,(H,9,10)(H2,8,11,12)']",['UCAGLBKTLXCODC-UHFFFAOYSA-N']
4sulfobenzoic_an->2an,3.72,4-sulfobenzoic acid,Lange's handbook of chemistry,['[H]OC(=O)c1c([H])c([H])c(S(=O)(=O)[O-])c([H])c1[H]'],['[#8]=[#16@](=[#8])(-[#8-])-[#6]1:[#6](:[#6](:[#6](:[#6](:[#6]:1-[H])-[H])-[#6](-[#8]-[H])=[#8])-[H])-[H]'],"['InChI=1S/C7H6O5S/c8-7(9)5-1-3-6(4-2-5)13(10,11)12/h1-4H,(H,8,9)(H,10,11,12)/p-1']",['HWAQOZGATRIYQG-UHFFFAOYSA-M']
4sulfophenol_an->2an,8.56,4-sulfophenol,"W.A. E,. McBryde, Can. J. Chem. 46, 2385,(1968)",['[H]Oc1c([H])c([H])c(S(=O)(=O)[O-])c([H])c1[H]'],['[#8]=[#16@](=[#8])(-[#8-])-[#6]1:[#6](:[#6](:[#6](:[#6](:[#6]:1-[H])-[H])-[#8]-[H])-[H])-[H]'],"['InChI=1S/C6H6O4S/c7-5-1-3-6(4-2-5)11(8,9)10/h1-4,7H,(H,8,9,10)/p-1']",['FEPBITJSIHRMRT-UHFFFAOYSA-M']
4tertbutylaniline_cation->neut,4.93,4-tertbutylaniline,https://doi.org/10.1016/j.chroma.2011.04.054,['[H]c1c([H])c(C(C([H])([H])[H])(C([H])([H])[H])C([H])([H])[H])c([H])c([H])c1N([H])[H]'],['[#7](-[#6]1:[#6](:[#6](:[#6](-[#6@](-[#6@@](-[H])(-[H])-[H])(-[#6@@](-[H])(-[H])-[H])-[#6@@](-[H])(-[H])-[H]):[#6](:[#6]:1-[H])-[H])-[H])-[H])(-[H])-[H]'],"['InChI=1S/C10H15N/c1-10(2,3)8-4-6-9(11)7-5-8/h4-7H,11H2,1-3H3']",['WRDWWAVNELMWAM-UHFFFAOYSA-N']