compn,pKa,correct name,reference,smiles,smarts,inchi,inchiKey
dimethylaminophenylphosphonic_cation->neut,2,[4-(dimethylamino)phenyl]phosphonic acid,"G. KORTUM, W. VOGEL and K. ANDRUSSOW, DISSOCIATION CONSTANTS OF ORGANIC ACIDS IN AQUEOUS SOLUTION ",['[H]O[P@](=O)([O-])c1c([H])c([H])c([N+]([H])(C([H])([H])[H])C([H])([H])[H])c([H])c1[H]'],['[#8](-[#15@](=[#8])(-[#8-])-[#6]1:[#6](:[#6](:[#6](:[#6](:[#6]:1-[H])-[H])-[#7@+](-[#6@](-[H])(-[H])-[H])(-[#6@@](-[H])(-[H])-[H])-[H])-[H])-[H])-[H]'],"['InChI=1S/C8H12NO3P/c1-9(2)7-3-5-8(6-4-7)13(10,11)12/h3-6H,1-2H3,(H2,10,11,12)']",['RSAJRKPVJVCGPY-UHFFFAOYSA-N']
dimethylaminophenylphosphonic_neut->an,4.2,[4-(dimethylamino)phenyl]phosphonic acid,"G. KORTUM, W. VOGEL and K. ANDRUSSOW, DISSOCIATION CONSTANTS OF ORGANIC ACIDS IN AQUEOUS SOLUTION ",['[H]O[P@](=O)([O-])c1c([H])c([H])c([N+]([H])(C([H])([H])[H])C([H])([H])[H])c([H])c1[H]'],['[#8](-[#15@](=[#8])(-[#8-])-[#6]1:[#6](:[#6](:[#6](:[#6](:[#6]:1-[H])-[H])-[#7@+](-[#6@](-[H])(-[H])-[H])(-[#6@@](-[H])(-[H])-[H])-[H])-[H])-[H])-[H]'],"['InChI=1S/C8H12NO3P/c1-9(2)7-3-5-8(6-4-7)13(10,11)12/h3-6H,1-2H3,(H2,10,11,12)']",['RSAJRKPVJVCGPY-UHFFFAOYSA-N']
dimethylcyclohexylamine_cation->neut,10.7,dimethylcyclohexylamine,10.1002/jcc.23068,['[H]C([H])([H])N(C([H])([H])[H])C1([H])C([H])([H])C([H])([H])C([H])([H])C([H])([H])C1([H])[H]'],['[H]-[#6@]1(-[#6@@](-[#6@](-[#6@](-[#6@](-[#6@@]-1(-[H])-[#7](-[#6@@](-[H])(-[H])-[H])-[#6@@](-[H])(-[H])-[H])(-[H])-[H])(-[H])-[H])(-[H])-[H])(-[H])-[H])-[H]'],"['InChI=1S/C8H17N/c1-9(2)8-6-4-3-5-7-8/h8H,3-7H2,1-2H3']",['SVYKKECYCPFKGB-UHFFFAOYSA-N']
dimethylethanethiol_neut->an,11.22,2-methylpropanethiol,Lange's handbook of chemistry,['[H]SC([H])([H])C([H])(C([H])([H])[H])C([H])([H])[H]'],['[H]-[#6@@](-[#6@@](-[H])(-[H])-[#16]-[H])(-[#6@@](-[H])(-[H])-[H])-[#6@@](-[H])(-[H])-[H]'],"['InChI=1S/C4H10S/c1-4(2)3-5/h4-5H,3H2,1-2H3']",['BDFAOUQQXJIZDG-UHFFFAOYSA-N']
dimethylglyoxime_neut->an,10.6,dimethylglyoxime,Lange's handbook of chemistry,['[H]O/N=C(C(=N/O[H])/C([H])([H])[H])\\C([H])([H])[H]'],['[#8](/[#7]=[#6](-[#6](=[#7]/[#8]-[H])/[#6@](-[H])(-[H])-[H])\\[#6@@](-[H])(-[H])-[H])-[H]'],"['InChI=1S/C4H8N2O2/c1-3(5-7)4(2)6-8/h7-8H,1-2H3/b5-3+,6-4+']",['JGUQDUKBUKFFRO-GGWOSOGESA-N']
dimethylguanidine_cation->neut,13.6,"1,2-dimethylguanidine",10.1002/jcc.23068,"['[H]N=C(N([H])C([H])([H])[H])N([H])C([H])([H])[H]', '[H]N([H])/C(=N\\C([H])([H])[H])N([H])C([H])([H])[H]']","['[#6](-[#7](-[H])-[#6@@](-[H])(-[H])-[H])(-[#7](-[H])-[#6@@](-[H])(-[H])-[H])=[#7]-[H]', '[#6](\\[#7](-[H])-[#6@@](-[H])(-[H])-[H])(=[#7]/[#6@@](-[H])(-[H])-[H])-[#7](-[H])-[H]']","['InChI=1S/C3H9N3/c1-5-3(4)6-2/h1-2H3,(H3,4,5,6)']",['LINDOXZENKYESA-UHFFFAOYSA-N']
dimethylisobutylamine_cation->neut,9.91,dimethylisopropylamine,10.1002/jcc.23068,['[H]C([H])([H])N(C([H])([H])[H])C([H])(C([H])([H])[H])C([H])([H])[H]'],['[H]-[#6@](-[#6@](-[#7](-[#6@@](-[H])(-[H])-[H])-[#6@@](-[H])(-[H])-[H])(-[#6@@](-[H])(-[H])-[H])-[H])(-[H])-[H]'],"['InChI=1S/C5H13N/c1-5(2)6(3)4/h5H,1-4H3']",['VMOWKUTXPNPTEN-UHFFFAOYSA-N']
dimethylmalonic_an->2an,5.68,dimethylmalonic acid,https://doi.org/10.1016/0022-1902(72)80587-6,['[H]OC(=O)C(C(=O)O[H])(C([H])([H])[H])C([H])([H])[H]'],['[#8](-[#6](=[#8])-[#6@](-[#6@@](-[H])(-[H])-[H])(-[#6](=[#8])-[#8]-[H])-[#6@@](-[H])(-[H])-[H])-[H]'],"['InChI=1S/C5H8O4/c1-5(2,3(6)7)4(8)9/h1-2H3,(H,6,7)(H,8,9)']",['OREAFAJWWJHCOT-UHFFFAOYSA-N']
dimethylmalonic_neut->an,3.01,dimethylmalonic acid,https://doi.org/10.1016/0022-1902(72)80587-6,['[H]OC(=O)C(C(=O)O[H])(C([H])([H])[H])C([H])([H])[H]'],['[#8](-[#6](=[#8])-[#6@](-[#6@@](-[H])(-[H])-[H])(-[#6](=[#8])-[#8]-[H])-[#6@@](-[H])(-[H])-[H])-[H]'],"['InChI=1S/C5H8O4/c1-5(2,3(6)7)4(8)9/h1-2H3,(H,6,7)(H,8,9)']",['OREAFAJWWJHCOT-UHFFFAOYSA-N']
dimethylpiperazine_2cation->cation,4.63,"1,4-dimethylpiperazine",Lange's handbook of chemistry,['[H]C([H])([H])N1C([H])([H])C([H])([H])N(C([H])([H])[H])C([H])([H])C1([H])[H]'],['[#7]1(-[#6@](-[#6@](-[#7](-[#6@@](-[#6@@]-1(-[H])-[H])(-[H])-[H])-[#6@](-[H])(-[H])-[H])(-[H])-[H])(-[H])-[H])-[#6@](-[H])(-[H])-[H]'],"['InChI=1S/C6H14N2/c1-7-3-5-8(2)6-4-7/h3-6H2,1-2H3']",['RXYPXQSKLGGKOL-UHFFFAOYSA-N']
dimethylpiperazine_cation->neut,8.54,"1,4-dimethylpiperazine",Lange's handbook of chemistry,['[H]C([H])([H])N1C([H])([H])C([H])([H])N(C([H])([H])[H])C([H])([H])C1([H])[H]'],['[#7]1(-[#6@](-[#6@](-[#7](-[#6@@](-[#6@@]-1(-[H])-[H])(-[H])-[H])-[#6@](-[H])(-[H])-[H])(-[H])-[H])(-[H])-[H])-[#6@](-[H])(-[H])-[H]'],"['InChI=1S/C6H14N2/c1-7-3-5-8(2)6-4-7/h3-6H2,1-2H3']",['RXYPXQSKLGGKOL-UHFFFAOYSA-N']
dimethylphosphoric_neut->an,0.76,dimethyl phosphoric acid,https://cdnsciencepub.com/doi/pdf/10.1139/v78-385,['[H]OP(=O)(OC([H])([H])[H])OC([H])([H])[H]'],['[#8](-[#15@@](-[#8]-[#6@@](-[H])(-[H])-[H])(=[#8])-[#8]-[#6@@](-[H])(-[H])-[H])-[H]'],"['InChI=1S/C2H7O4P/c1-5-7(3,4)6-2/h1-2H3,(H,3,4)']",['KKUKTXOBAWVSHC-UHFFFAOYSA-N']
dinitromethane_neut->an,3.63,dinitromethane,Tetrahedron 57 (2001) 5923-5930 ,['[H]C([H])([N+](=O)[O-])[N+](=O)[O-]'],['[H]-[#6@](-[H])(-[#7+](=[#8])-[#8-])-[#7+](=[#8])-[#8-]'],['InChI=1S/CH2N2O4/c4-2(5)1-3(6)7/h1H2'],['WINNISSSXBRWMA-UHFFFAOYSA-N']
diphenylacetic_neut->an,3.94,diphenylacetic acid,Lange's handbook of chemistry,['[H]OC(=O)C([H])(c1c([H])c([H])c([H])c([H])c1[H])c1c([H])c([H])c([H])c([H])c1[H]'],['[#6]1(:[#6](:[#6](:[#6](:[#6](:[#6]:1-[H])-[H])-[H])-[#6@@](-[H])(-[#6]1:[#6](:[#6](:[#6](:[#6](:[#6]:1-[H])-[H])-[H])-[H])-[H])-[#6](=[#8])-[#8]-[H])-[H])-[H]'],"['InChI=1S/C14H12O2/c15-14(16)13(11-7-3-1-4-8-11)12-9-5-2-6-10-12/h1-10,13H,(H,15,16)']",['PYHXGXCGESYPCW-UHFFFAOYSA-N']
diphenylamine_cation->neut,0.9,diphenylamine,Lange's handbook of chemistry,['[H]c1c([H])c([H])c(N([H])c2c([H])c([H])c([H])c([H])c2[H])c([H])c1[H]'],['[#7](-[#6]1:[#6](:[#6](:[#6](:[#6](:[#6]:1-[H])-[H])-[H])-[H])-[H])(-[#6]1:[#6](:[#6](:[#6](:[#6](:[#6]:1-[H])-[H])-[H])-[H])-[H])-[H]'],"['InChI=1S/C12H11N/c1-3-7-11(8-4-1)13-12-9-5-2-6-10-12/h1-10,13H']",['DMBHHRLKUKUOEG-UHFFFAOYSA-N']
dithioerythritol_neut->an,9.5,dithioerythritol,Lange's handbook of chemistry,['[H]O[C@@]([H])(C([H])([H])S[H])[C@]([H])(O[H])C([H])([H])S[H]'],['[#16](-[#6@@](-[#6@](-[#8]-[H])(-[#6@](-[#8]-[H])(-[#6@](-[#16]-[H])(-[H])-[H])-[H])-[H])(-[H])-[H])-[H]'],"['InChI=1S/C4H10O2S2/c5-3(1-7)4(6)2-8/h3-8H,1-2H2/t3-,4+']",['VHJLVAABSRFDPM-ZXZARUISSA-N']
dopamine_cation->neut,8.87,dopamine,"G. P. Lewis. Brit. J. Pharmacol. 9, 488 (1954).","['[H]Oc1c([H])c([H])c(C([H])([H])C([H])([H])N([H])[H])c([H])c1O[H]', '[H]Oc1c([H])c([H])c(C([H])([H])C([H])([H])[N+]([H])([H])[H])c([H])c1[O-]', '[H]Oc1c([H])c(C([H])([H])C([H])([H])[N+]([H])([H])[H])c([H])c([H])c1[O-]']","['[#6]1(:[#6](:[#6](:[#6](:[#6](:[#6]:1-[H])-[#6@@](-[H])(-[H])-[#6@](-[H])(-[H])-[#7](-[H])-[H])-[H])-[H])-[#8]-[H])-[#8]-[H]', '[#6]1(:[#6](:[#6](:[#6](:[#6](:[#6]:1-[H])-[#6@@](-[H])(-[H])-[#6@](-[H])(-[H])-[#7@@+](-[H])(-[H])-[H])-[H])-[H])-[#8]-[H])-[#8-]', '[#6]1(:[#6](:[#6](:[#6](:[#6](:[#6]:1-[H])-[#6@@](-[H])(-[H])-[#6@](-[H])(-[H])-[#7@@+](-[H])(-[H])-[H])-[H])-[H])-[#8-])-[#8]-[H]']","['InChI=1S/C8H11NO2/c9-4-3-6-1-2-7(10)8(11)5-6/h1-2,5,10-11H,3-4,9H2']",['VYFYYTLLBUKUHU-UHFFFAOYSA-N']
dopamine_neut->an,10.63,dopamine,"G. P. Lewis. Brit. J. Pharmacol. 9, 488 (1954).","['[H]Oc1c([H])c([H])c(C([H])([H])C([H])([H])N([H])[H])c([H])c1O[H]', '[H]Oc1c([H])c([H])c(C([H])([H])C([H])([H])[N+]([H])([H])[H])c([H])c1[O-]', '[H]Oc1c([H])c(C([H])([H])C([H])([H])[N+]([H])([H])[H])c([H])c([H])c1[O-]']","['[#6]1(:[#6](:[#6](:[#6](:[#6](:[#6]:1-[H])-[#6@@](-[H])(-[H])-[#6@](-[H])(-[H])-[#7](-[H])-[H])-[H])-[H])-[#8]-[H])-[#8]-[H]', '[#6]1(:[#6](:[#6](:[#6](:[#6](:[#6]:1-[H])-[#6@@](-[H])(-[H])-[#6@](-[H])(-[H])-[#7@@+](-[H])(-[H])-[H])-[H])-[H])-[#8]-[H])-[#8-]', '[#6]1(:[#6](:[#6](:[#6](:[#6](:[#6]:1-[H])-[#6@@](-[H])(-[H])-[#6@](-[H])(-[H])-[#7@@+](-[H])(-[H])-[H])-[H])-[H])-[#8-])-[#8]-[H]']","['InChI=1S/C8H11NO2/c9-4-3-6-1-2-7(10)8(11)5-6/h1-2,5,10-11H,3-4,9H2']",['VYFYYTLLBUKUHU-UHFFFAOYSA-N']
ecgonine_neut->an,10.21,ecgonine,profiles of drug substances excipiends and related (U),['[H]O[C@@]1([H])C([H])([H])[C@]2([H])C([H])([H])C([H])([H])[C@]([H])([C@@]1([H])C(=O)[O-])[N@@+]2([H])C([H])([H])[H]'],['[#8](-[#6@@]1(-[#6@@](-[#6@@]2(-[#7@+](-[#6@@](-[#6@](-[#6@@]-2(-[H])-[H])(-[H])-[H])(-[#6@@]-1(-[H])-[H])-[H])(-[#6@](-[H])(-[H])-[H])-[H])-[H])(-[#6](=[#8])-[#8-])-[H])-[H])-[H]'],"['InChI=1S/C9H15NO3/c1-10-5-2-3-6(10)8(9(12)13)7(11)4-5/h5-8,11H,2-4H2,1H3,(H,12,13)/t5-,6+,7-,8+/m0/s1']",['PHMBVCPLDPDESM-FKSUSPILSA-N']
ephedrine_cation->neut,9.54,d-ephedrine,profiles of drug substances excipiends and related (U),['[H]O[C@@]([H])(c1c([H])c([H])c([H])c([H])c1[H])[C@]([H])(N([H])C([H])([H])[H])C([H])([H])[H]'],['[#6]1(:[#6](:[#6](:[#6](:[#6](:[#6]:1-[H])-[#6@@](-[H])(-[#6@@](-[H])(-[#6@](-[H])(-[H])-[H])-[#7](-[H])-[#6@](-[H])(-[H])-[H])-[#8]-[H])-[H])-[H])-[H])-[H]'],"['InChI=1S/C10H15NO/c1-8(11-2)10(12)9-6-4-3-5-7-9/h3-8,10-12H,1-2H3/t8-,10-/m1/s1']",['KWGRBVOPPLSCSI-PSASIEDQSA-N']
ethanedithiol_an->2an,10.54,"1,2-ethanedithiol",Lange's handbook of chemistry,['[H]SC([H])([H])C([H])([H])S[H]'],['[H]-[#6@](-[H])(-[#6@@](-[H])(-[H])-[#16]-[H])-[#16]-[H]'],"['InChI=1S/C2H6S2/c3-1-2-4/h3-4H,1-2H2']",['VYMPLPIFKRHAAC-UHFFFAOYSA-N']
ethanedithiol_neut->an,8.96,"1,2-ethanedithiol",Lange's handbook of chemistry,['[H]SC([H])([H])C([H])([H])S[H]'],['[H]-[#6@](-[H])(-[#6@@](-[H])(-[H])-[#16]-[H])-[#16]-[H]'],"['InChI=1S/C2H6S2/c3-1-2-4/h3-4H,1-2H2']",['VYMPLPIFKRHAAC-UHFFFAOYSA-N']
ethanethiol_neut->an,10.61,ethanethiol,Lange's handbook of chemistry,['[H]SC([H])([H])C([H])([H])[H]'],['[H]-[#6@@](-[H])(-[H])-[#6@@](-[H])(-[H])-[#16]-[H]'],"['InChI=1S/C2H6S/c1-2-3/h3H,2H2,1H3']",['DNJIEGIFACGWOD-UHFFFAOYSA-N']
ethanol_neut->an,15.9,ethanol,DOI: 10.1021/acs.jpca.7b03907,['[H]OC([H])([H])C([H])([H])[H]'],['[#8](-[H])-[#6@@](-[H])(-[H])-[#6@@](-[H])(-[H])-[H]'],"['InChI=1S/C2H6O/c1-2-3/h3H,2H2,1H3']",['LFQSCWFLJHTTHZ-UHFFFAOYSA-N']
ethanolamine_cation->neut,9.5,ethanolamine,Lange's handbook of chemistry,['[H]OC([H])([H])C([H])([H])N([H])[H]'],['[H]-[#6@@](-[H])(-[#6@@](-[H])(-[H])-[#8]-[H])-[#7](-[H])-[H]'],"['InChI=1S/C2H7NO/c3-1-2-4/h4H,1-3H2']",['HZAXFHJVJLSVMW-UHFFFAOYSA-N']
ethylamine_cation->neut,10.63,cyanoethylamine,Lange's handbook of chemistry,['[H]N([H])C([H])([H])C([H])([H])[H]'],['[#7](-[#6@@](-[H])(-[H])-[#6@@](-[H])(-[H])-[H])(-[H])-[H]'],"['InChI=1S/C2H7N/c1-2-3/h2-3H2,1H3']",['QUSNBJAOOMFDIB-UHFFFAOYSA-N']
ethyleneglycol_neut->an,14.77,ethyleneglycol,oi.org/10.1021/ja01489a008,['[H]OC([H])([H])C([H])([H])O[H]'],['[#8](-[#6@@](-[#6@](-[#8]-[H])(-[H])-[H])(-[H])-[H])-[H]'],"['InChI=1S/C2H6O2/c3-1-2-4/h3-4H,1-2H2']",['LYCAIKOWRPUZTN-UHFFFAOYSA-N']
ethylhydroperoxyde_neut->an,11.8,ethyl hydroperoxide,Lange's handbook of chemistry,['[H]OOC([H])([H])C([H])([H])[H]'],['[H]-[#6@@](-[H])(-[H])-[#6@@](-[H])(-[H])-[#8]-[#8]-[H]'],"['InChI=1S/C2H6O2/c1-2-4-3/h3H,2H2,1H3']",['ILHIHKRJJMKBEE-UHFFFAOYSA-N']
ethylphosphinic_neut->an,3.29,ethylphosphinic acid,Lange's handbook of chemistry,['[H+].[H]OP([O-])C([H])([H])C([H])([H])[H]'],['[#15](-[#8]-[H])(-[#8-])-[#6@](-[H])(-[H])-[#6@@](-[H])(-[H])-[H].[H+]'],"['InChI=1S/C2H6O2P/c1-2-5(3)4/h3H,2H2,1H3/q-1/p+1']",['ITBGAZPVXHSJGK-UHFFFAOYSA-O']
formylglycine_neut->an,3.43,formylglycine,Lange's handbook of chemistry,['[H]OC(=O)C([H])([H])N([H])C([H])=O'],['[#8](-[#6](=[#8])-[#6@@](-[#7](-[#6](=[#8])-[H])-[H])(-[H])-[H])-[H]'],"['InChI=1S/C3H5NO3/c5-2-4-1-3(6)7/h2H,1H2,(H,4,5)(H,6,7)']",['UGJBHEZMOKVTIM-UHFFFAOYSA-N']
fluoroacetic_neut->an,2.58,difluoroacetic acid,Lange's handbook of chemistry,['[H]OC(=O)C([H])([H])F'],['[#6](=[#8])(-[#8]-[H])-[#6@@](-[H])(-[H])-[#9]'],"['InChI=1S/C2H3FO2/c3-1-2(4)5/h1H2,(H,4,5)']",['QEWYKACRFQMRMB-UHFFFAOYSA-N']
formic_neut->an,3.75,formic acid,Lange's handbook of chemistry,['[H]OC([H])=O'],['[#6](=[#8])(-[#8]-[H])-[H]'],"['InChI=1S/CH2O2/c2-1-3/h1H,(H,2,3)']",['BDAGIHXWWSANSR-UHFFFAOYSA-N']
gallic_neut->an,4.21,gallic acid,profiles of drug substances excipiends and related (A),['[H]OC(=O)c1c([H])c(O[H])c(O[H])c(O[H])c1[H]'],['[#6]1(:[#6](:[#6](:[#6](:[#6](:[#6]:1-[#8]-[H])-[H])-[#6](=[#8])-[#8]-[H])-[H])-[#8]-[H])-[#8]-[H]'],"['InChI=1S/C7H6O5/c8-4-1-3(7(11)12)2-5(9)6(4)10/h1-2,8-10H,(H,11,12)']",['LNTHITQWFMADLM-UHFFFAOYSA-N']
glutamic_cation->neut,2.19,glutamic acid,Lange's handbook of chemistry,['[H]OC(=O)C([H])([H])C([H])([H])[C@@]([H])(C(=O)[O-])[N+]([H])([H])[H]'],['[H]-[#7@@](-[H])(-[H])-[#6@](-[#6](=[#8])-[#8-])(-[#6@](-[#6@@](-[#6](=[#8])-[#8]-[H])(-[H])-[H])(-[H])-[H])-[H]'],"['InChI=1S/C5H9NO4/c6-3(5(9)10)1-2-4(7)8/h3H,1-2,6H2,(H,7,8)(H,9,10)/t3-/m0/s1']",['WHUUTDBJXJRKMK-VKHMYHEASA-N']
glutamic_neut->an,4.25,glutamic acid,Lange's handbook of chemistry,['[H]OC(=O)C([H])([H])C([H])([H])[C@@]([H])(C(=O)[O-])[N+]([H])([H])[H]'],['[H]-[#7@@](-[H])(-[H])-[#6@](-[#6](=[#8])-[#8-])(-[#6@](-[#6@@](-[#6](=[#8])-[#8]-[H])(-[H])-[H])(-[H])-[H])-[H]'],"['InChI=1S/C5H9NO4/c6-3(5(9)10)1-2-4(7)8/h3H,1-2,6H2,(H,7,8)(H,9,10)/t3-/m0/s1']",['WHUUTDBJXJRKMK-VKHMYHEASA-N']
glutamic_an->2an,9.67,glutamic acid,Lange's handbook of chemistry,['[H]OC(=O)C([H])([H])C([H])([H])[C@@]([H])(C(=O)[O-])[N+]([H])([H])[H]'],['[H]-[#7@@](-[H])(-[H])-[#6@](-[#6](=[#8])-[#8-])(-[#6@](-[#6@@](-[#6](=[#8])-[#8]-[H])(-[H])-[H])(-[H])-[H])-[H]'],"['InChI=1S/C5H9NO4/c6-3(5(9)10)1-2-4(7)8/h3H,1-2,6H2,(H,7,8)(H,9,10)/t3-/m0/s1']",['WHUUTDBJXJRKMK-VKHMYHEASA-N']
glutamine_neut->an,9.13,glutamine,Lange's handbook of chemistry,['[H]N([H])C(=O)C([H])([H])C([H])([H])[C@@]([H])(C(=O)[O-])[N+]([H])([H])[H]'],['[H]-[#7@@](-[H])(-[H])-[#6@](-[#6](=[#8])-[#8-])(-[#6@](-[#6@](-[#6](=[#8])-[#7](-[H])-[H])(-[H])-[H])(-[H])-[H])-[H]'],"['InChI=1S/C5H10N2O3/c6-3(5(9)10)1-2-4(7)8/h3H,1-2,6H2,(H2,7,8)(H,9,10)/t3-/m0/s1']",['ZDXPYRJPNDTMRX-VKHMYHEASA-N']
glutamine_cation->neut,2.17,glutamine,Lange's handbook of chemistry,['[H]N([H])C(=O)C([H])([H])C([H])([H])[C@@]([H])(C(=O)[O-])[N+]([H])([H])[H]'],['[H]-[#7@@](-[H])(-[H])-[#6@](-[#6](=[#8])-[#8-])(-[#6@](-[#6@](-[#6](=[#8])-[#7](-[H])-[H])(-[H])-[H])(-[H])-[H])-[H]'],"['InChI=1S/C5H10N2O3/c6-3(5(9)10)1-2-4(7)8/h3H,1-2,6H2,(H2,7,8)(H,9,10)/t3-/m0/s1']",['ZDXPYRJPNDTMRX-VKHMYHEASA-N']
glutarimide_neut->an,11.43,glutarimide,Lange's handbook of chemistry,['[H]N1C(=O)C([H])([H])C([H])([H])C([H])([H])C1=O'],['[#8]=[#6]1-[#7](-[#6](=[#8])-[#6@@](-[#6@](-[#6@]-1(-[H])-[H])(-[H])-[H])(-[H])-[H])-[H]'],"['InChI=1S/C5H7NO2/c7-4-2-1-3-5(8)6-4/h1-3H2,(H,6,7,8)']",['KNCYXPMJDCCGSJ-UHFFFAOYSA-N']
glyceric_neut->an,3.64,glyceric acid,Lange's handbook of chemistry,['[H]OC(=O)[C@]([H])(O[H])C([H])([H])O[H]'],['[#6](-[#8]-[H])(=[#8])-[#6@@](-[H])(-[#6@@](-[H])(-[H])-[#8]-[H])-[#8]-[H]'],"['InChI=1S/C3H6O4/c4-1-2(5)3(6)7/h2,4-5H,1H2,(H,6,7)/t2-/m1/s1']",['RBNPOMFGQQGHHO-UWTATZPHSA-N']
glycolic_neut->an,3.83,glycolic acid,Lange's handbook of chemistry,['[H]OC(=O)C([H])([H])O[H]'],['[#8](-[#6@@](-[#6](-[#8]-[H])=[#8])(-[H])-[H])-[H]'],"['InChI=1S/C2H4O3/c3-1-2(4)5/h3H,1H2,(H,4,5)']",['AEMRFAOFKBGASW-UHFFFAOYSA-N']
glycylalanine_cation->neut,3.15,glycylalanine,Lange's handbook of chemistry,['[H]N(C(=O)C([H])([H])[N+]([H])([H])[H])[C@]([H])(C(=O)[O-])C([H])([H])[H]'],['[#8]=[#6](-[#8-])-[#6@@](-[#7](-[#6](=[#8])-[#6@](-[#7@+](-[H])(-[H])-[H])(-[H])-[H])-[H])(-[#6@@](-[H])(-[H])-[H])-[H]'],"['InChI=1S/C5H10N2O3/c1-3(5(9)10)7-4(8)2-6/h3H,2,6H2,1H3,(H,7,8)(H,9,10)/t3-/m0/s1']",['VPZXBVLAVMBEQI-VKHMYHEASA-N']
glycylalanine_neut->an,8.33,glycylalanine,Lange's handbook of chemistry,['[H]N(C(=O)C([H])([H])[N+]([H])([H])[H])[C@]([H])(C(=O)[O-])C([H])([H])[H]'],['[#8]=[#6](-[#8-])-[#6@@](-[#7](-[#6](=[#8])-[#6@](-[#7@+](-[H])(-[H])-[H])(-[H])-[H])-[H])(-[#6@@](-[H])(-[H])-[H])-[H]'],"['InChI=1S/C5H10N2O3/c1-3(5(9)10)7-4(8)2-6/h3H,2,6H2,1H3,(H,7,8)(H,9,10)/t3-/m0/s1']",['VPZXBVLAVMBEQI-VKHMYHEASA-N']
glycylglycylglycine_cation->neut,3.38,glycylglycylglycine,DOI:10.1007/s11095-013-1232-z,['[H]N(C(=O)C([H])([H])N([H])C(=O)C([H])([H])[N+]([H])([H])[H])C([H])([H])C(=O)[O-]'],['[#8]=[#6](-[#7](-[#6@](-[#6](=[#8])-[#8-])(-[H])-[H])-[H])-[#6@](-[#7](-[#6](=[#8])-[#6@](-[#7@+](-[H])(-[H])-[H])(-[H])-[H])-[H])(-[H])-[H]'],"['InChI=1S/C6H11N3O4/c7-1-4(10)8-2-5(11)9-3-6(12)13/h1-3,7H2,(H,8,10)(H,9,11)(H,12,13)']",['XKUKSGPZAADMRA-UHFFFAOYSA-N']
glycylglycylglycine_neut->an,7.88,glycylglycylglycine,DOI:10.1007/s11095-013-1232-z,['[H]N(C(=O)C([H])([H])N([H])C(=O)C([H])([H])[N+]([H])([H])[H])C([H])([H])C(=O)[O-]'],['[#8]=[#6](-[#7](-[#6@](-[#6](=[#8])-[#8-])(-[H])-[H])-[H])-[#6@](-[#7](-[#6](=[#8])-[#6@](-[#7@+](-[H])(-[H])-[H])(-[H])-[H])-[H])(-[H])-[H]'],"['InChI=1S/C6H11N3O4/c7-1-4(10)8-2-5(11)9-3-6(12)13/h1-3,7H2,(H,8,10)(H,9,11)(H,12,13)']",['XKUKSGPZAADMRA-UHFFFAOYSA-N']
glycilglycine_cation->neut,3.13,glycylglycine,Lange's handbook of chemistry,['[H]N(C(=O)C([H])([H])[N+]([H])([H])[H])C([H])([H])C(=O)[O-]'],['[#8]=[#6](-[#7](-[#6@](-[#6](=[#8])-[#8-])(-[H])-[H])-[H])-[#6@](-[#7@+](-[H])(-[H])-[H])(-[H])-[H]'],"['InChI=1S/C4H8N2O3/c5-1-3(7)6-2-4(8)9/h1-2,5H2,(H,6,7)(H,8,9)']",['YMAWOPBAYDPSLA-UHFFFAOYSA-N']
glycilglycine_neut->an,8.25,glycylglycine,Lange's handbook of chemistry,['[H]N(C(=O)C([H])([H])[N+]([H])([H])[H])C([H])([H])C(=O)[O-]'],['[#8]=[#6](-[#7](-[#6@](-[#6](=[#8])-[#8-])(-[H])-[H])-[H])-[#6@](-[#7@+](-[H])(-[H])-[H])(-[H])-[H]'],"['InChI=1S/C4H8N2O3/c5-1-3(7)6-2-4(8)9/h1-2,5H2,(H,6,7)(H,8,9)']",['YMAWOPBAYDPSLA-UHFFFAOYSA-N']
glycilproline_cation->neut,2.81,glycyl-proline,Lange's handbook of chemistry,['[H]C1([H])N(C(=O)C([H])([H])[N+]([H])([H])[H])[C@@]([H])(C(=O)[O-])C([H])([H])C1([H])[H]'],['[#8]=[#6](-[#8-])-[#6@@]1(-[#7](-[#6@](-[#6@](-[#6@@]-1(-[H])-[H])(-[H])-[H])(-[H])-[H])-[#6](=[#8])-[#6@](-[#7@+](-[H])(-[H])-[H])(-[H])-[H])-[H]'],"['InChI=1S/C7H12N2O3/c8-4-6(10)9-3-1-2-5(9)7(11)12/h5H,1-4,8H2,(H,11,12)/t5-/m1/s1']",['KZNQNBZMBZJQJO-RXMQYKEDSA-N']
glycilproline_neut->an,8.65,glycyl-proline,Lange's handbook of chemistry,['[H]C1([H])N(C(=O)C([H])([H])[N+]([H])([H])[H])[C@@]([H])(C(=O)[O-])C([H])([H])C1([H])[H]'],['[#8]=[#6](-[#8-])-[#6@@]1(-[#7](-[#6@](-[#6@](-[#6@@]-1(-[H])-[H])(-[H])-[H])(-[H])-[H])-[#6](=[#8])-[#6@](-[#7@+](-[H])(-[H])-[H])(-[H])-[H])-[H]'],"['InChI=1S/C7H12N2O3/c8-4-6(10)9-3-1-2-5(9)7(11)12/h5H,1-4,8H2,(H,11,12)/t5-/m1/s1']",['KZNQNBZMBZJQJO-RXMQYKEDSA-N']
glycylserine_cation->neut,2.98,glycyl-serine,Lange's handbook of chemistry,['[H]OC([H])([H])[C@]([H])(C(=O)[O-])N([H])C(=O)C([H])([H])[N+]([H])([H])[H]'],['[#8](-[#6@](-[#6@@](-[#7](-[#6](=[#8])-[#6@](-[#7@+](-[H])(-[H])-[H])(-[H])-[H])-[H])(-[#6](=[#8])-[#8-])-[H])(-[H])-[H])-[H]'],"['InChI=1S/C5H10N2O4/c6-1-4(9)7-3(2-8)5(10)11/h3,8H,1-2,6H2,(H,7,9)(H,10,11)/t3-/m1/s1']",['BCCRXDTUTZHDEU-GSVOUGTGSA-N']
glycylserine_neut->an,8.38,glycyl-serine,Lange's handbook of chemistry,['[H]OC([H])([H])[C@]([H])(C(=O)[O-])N([H])C(=O)C([H])([H])[N+]([H])([H])[H]'],['[#8](-[#6@](-[#6@@](-[#7](-[#6](=[#8])-[#6@](-[#7@+](-[H])(-[H])-[H])(-[H])-[H])-[H])(-[#6](=[#8])-[#8-])-[H])(-[H])-[H])-[H]'],"['InChI=1S/C5H10N2O4/c6-1-4(9)7-3(2-8)5(10)11/h3,8H,1-2,6H2,(H,7,9)(H,10,11)/t3-/m1/s1']",['BCCRXDTUTZHDEU-GSVOUGTGSA-N']
glycyltyrosine_cation->neut,2.93,glycyltyrosine,Lange's handbook of chemistry,['[H]Oc1c([H])c([H])c(C([H])([H])[C@@]([H])(C(=O)[O-])N([H])C(=O)C([H])([H])[N+]([H])([H])[H])c([H])c1[H]'],['[#8]=[#6](-[#8-])-[#6@@](-[#7](-[#6](=[#8])-[#6@](-[#7@+](-[H])(-[H])-[H])(-[H])-[H])-[H])(-[#6@@](-[#6]1:[#6](:[#6](:[#6](-[#8]-[H]):[#6](:[#6]:1-[H])-[H])-[H])-[H])(-[H])-[H])-[H]'],"['InChI=1S/C11H14N2O4/c12-6-10(15)13-9(11(16)17)5-7-1-3-8(14)4-2-7/h1-4,9,14H,5-6,12H2,(H,13,15)(H,16,17)/t9-/m0/s1']",['XBGGUPMXALFZOT-VIFPVBQESA-N']
glycyltyrosine_neut->an,8.45,glycyltyrosine,Lange's handbook of chemistry,['[H]Oc1c([H])c([H])c(C([H])([H])[C@@]([H])(C(=O)[O-])N([H])C(=O)C([H])([H])[N+]([H])([H])[H])c([H])c1[H]'],['[#8]=[#6](-[#8-])-[#6@@](-[#7](-[#6](=[#8])-[#6@](-[#7@+](-[H])(-[H])-[H])(-[H])-[H])-[H])(-[#6@@](-[#6]1:[#6](:[#6](:[#6](-[#8]-[H]):[#6](:[#6]:1-[H])-[H])-[H])-[H])(-[H])-[H])-[H]'],"['InChI=1S/C11H14N2O4/c12-6-10(15)13-9(11(16)17)5-7-1-3-8(14)4-2-7/h1-4,9,14H,5-6,12H2,(H,13,15)(H,16,17)/t9-/m0/s1']",['XBGGUPMXALFZOT-VIFPVBQESA-N']