compn,pKa,correct name,reference,smiles,smarts,inchi,inchiKey
4amino5chloro2hydroxypyrimidine_neut->an,10.36,"4-amino-5-chloro-1,2-dihydropyrimidin-2-one",10.1002/9780470186763,"['[H]c1nc(=O)n([H])c(N([H])[H])c1Cl', '[H]Oc1nc([H])c(Cl)c(N([H])[H])n1', '[H]c1c(Cl)c(N([H])[H])nc(=O)n1[H]']","['[#7](-[#6]1:[#7](:[#6](:[#7]:[#6](:[#6]:1-[#17])-[H])=[#8])-[H])(-[H])-[H]', '[#7](-[#6]1:[#7]:[#6](:[#7]:[#6](:[#6]:1-[#17])-[H])-[#8]-[H])(-[H])-[H]', '[#7](-[#6]1:[#7]:[#6](:[#7](:[#6](:[#6]:1-[#17])-[H])-[H])=[#8])(-[H])-[H]']","['InChI=1S/C4H4ClN3O/c5-2-1-7-4(9)8-3(2)6/h1H,(H3,6,7,8,9)']",['PNWOYKVCNDZOLS-UHFFFAOYSA-N']
4amino5fluoro2hydroxypyrimidine_cation->neut,2.83,4-amino-5-fluoro-2-hydroxypyrimidine,10.1002/9780470186763,"['[H]Oc1nc([H])c(F)c(N([H])[H])n1', '[H]c1nc(=O)n([H])c(N([H])[H])c1F', '[H]c1c(F)c(N([H])[H])nc(=O)n1[H]']","['[#7](-[#6]1:[#7]:[#6](:[#7]:[#6](:[#6]:1-[#9])-[H])-[#8]-[H])(-[H])-[H]', '[#7](-[#6]1:[#7](:[#6](:[#7]:[#6](:[#6]:1-[#9])-[H])=[#8])-[H])(-[H])-[H]', '[#7](-[#6]1:[#7]:[#6](:[#7](:[#6](:[#6]:1-[#9])-[H])-[H])=[#8])(-[H])-[H]']","['InChI=1S/C4H4FN3O/c5-2-1-7-4(9)8-3(2)6/h1H,(H3,6,7,8,9)']",['XRECTZIEBJDKEO-UHFFFAOYSA-N']
4amino5fluoro2hydroxypyrimidine_neut->an,10.87,4-amino-5-fluoro-2-hydroxypyrimidine,10.1002/9780470186763,"['[H]Oc1nc([H])c(F)c(N([H])[H])n1', '[H]c1nc(=O)n([H])c(N([H])[H])c1F', '[H]c1c(F)c(N([H])[H])nc(=O)n1[H]']","['[#7](-[#6]1:[#7]:[#6](:[#7]:[#6](:[#6]:1-[#9])-[H])-[#8]-[H])(-[H])-[H]', '[#7](-[#6]1:[#7](:[#6](:[#7]:[#6](:[#6]:1-[#9])-[H])=[#8])-[H])(-[H])-[H]', '[#7](-[#6]1:[#7]:[#6](:[#7](:[#6](:[#6]:1-[#9])-[H])-[H])=[#8])(-[H])-[H]']","['InChI=1S/C4H4FN3O/c5-2-1-7-4(9)8-3(2)6/h1H,(H3,6,7,8,9)']",['XRECTZIEBJDKEO-UHFFFAOYSA-N']
4amino6chloro2hydroxypyrimidine_cation->neut,3.26,4-amino-6-chloro-2(1h)-pyrimidinone,10.1002/9780470186763,"['[H]Oc1nc(Cl)c([H])c(N([H])[H])n1', '[H]c1c(Cl)nc(=O)n([H])c1N([H])[H]', '[H]c1c(N([H])[H])nc(=O)n([H])c1Cl']","['[#7](-[#6]1:[#7]:[#6](:[#7]:[#6](:[#6]:1-[H])-[#17])-[#8]-[H])(-[H])-[H]', '[#7](-[#6]1:[#7](:[#6](:[#7]:[#6](:[#6]:1-[H])-[#17])=[#8])-[H])(-[H])-[H]', '[#7](-[#6]1:[#7]:[#6](:[#7](:[#6](:[#6]:1-[H])-[#17])-[H])=[#8])(-[H])-[H]']","['InChI=1S/C4H4ClN3O/c5-2-1-3(6)8-4(9)7-2/h1H,(H3,6,7,8,9)']",['XGKXWYFBNZLIHA-UHFFFAOYSA-N']
4amino6chloro2hydroxypyrimidine_neut->an,8.59,4-amino-6-chloro-2(1h)-pyrimidinone,10.1002/9780470186763,"['[H]Oc1nc(Cl)c([H])c(N([H])[H])n1', '[H]c1c(Cl)nc(=O)n([H])c1N([H])[H]', '[H]c1c(N([H])[H])nc(=O)n([H])c1Cl']","['[#7](-[#6]1:[#7]:[#6](:[#7]:[#6](:[#6]:1-[H])-[#17])-[#8]-[H])(-[H])-[H]', '[#7](-[#6]1:[#7](:[#6](:[#7]:[#6](:[#6]:1-[H])-[#17])=[#8])-[H])(-[H])-[H]', '[#7](-[#6]1:[#7]:[#6](:[#7](:[#6](:[#6]:1-[H])-[#17])-[H])=[#8])(-[H])-[H]']","['InChI=1S/C4H4ClN3O/c5-2-1-3(6)8-4(9)7-2/h1H,(H3,6,7,8,9)']",['XGKXWYFBNZLIHA-UHFFFAOYSA-N']
4amino6fluoro2hydroxypyrimidine_cation->neut,1.5,4-amino-6-fluoro-2(1h)pyrimidinone,10.1002/9780470186763,"['[H]Oc1nc(F)c([H])c(N([H])[H])n1', '[H]c1c(F)nc(=O)n([H])c1N([H])[H]', '[H]c1c(N([H])[H])nc(=O)n([H])c1F']","['[#7](-[#6]1:[#7]:[#6](:[#7]:[#6](:[#6]:1-[H])-[#9])-[#8]-[H])(-[H])-[H]', '[#7](-[#6]1:[#7](:[#6](:[#7]:[#6](:[#6]:1-[H])-[#9])=[#8])-[H])(-[H])-[H]', '[#7](-[#6]1:[#7]:[#6](:[#7](:[#6](:[#6]:1-[H])-[#9])-[H])=[#8])(-[H])-[H]']","['InChI=1S/C4H4FN3O/c5-2-1-3(6)8-4(9)7-2/h1H,(H3,6,7,8,9)']",['KFYFUDYZSBIDHZ-UHFFFAOYSA-N']
4amino6fluoro2hydroxypyrimidine_neut->an,9.05,4-amino-6-fluoro-2(1h)pyrimidinone,10.1002/9780470186763,"['[H]Oc1nc(F)c([H])c(N([H])[H])n1', '[H]c1c(F)nc(=O)n([H])c1N([H])[H]', '[H]c1c(N([H])[H])nc(=O)n([H])c1F']","['[#7](-[#6]1:[#7]:[#6](:[#7]:[#6](:[#6]:1-[H])-[#9])-[#8]-[H])(-[H])-[H]', '[#7](-[#6]1:[#7](:[#6](:[#7]:[#6](:[#6]:1-[H])-[#9])=[#8])-[H])(-[H])-[H]', '[#7](-[#6]1:[#7]:[#6](:[#7](:[#6](:[#6]:1-[H])-[#9])-[H])=[#8])(-[H])-[H]']","['InChI=1S/C4H4FN3O/c5-2-1-3(6)8-4(9)7-2/h1H,(H3,6,7,8,9)']",['KFYFUDYZSBIDHZ-UHFFFAOYSA-N']
4amino5cyanopyrimidine_cation->neut,2.54,4-amino-5-cyanopyrimidine,10.1002/9780470186763,['[H]c1nc([H])c(C#N)c(N([H])[H])n1'],['[#7](-[#6]1:[#7]:[#6](:[#7]:[#6](:[#6]:1-[#6]#[#7])-[H])-[H])(-[H])-[H]'],"['InChI=1S/C5H4N4/c6-1-4-2-8-3-9-5(4)7/h2-3H,(H2,7,8,9)']",['JAIYUIOGVNRXEW-UHFFFAOYSA-N']
4amino5cyano2methylpyrimidine_cation->neut,3.51,4-amino-5-cyano-2-methylpyrimidine,10.1002/9780470186763,['[H]c1nc(C([H])([H])[H])nc(N([H])[H])c1C#N'],['[#7](-[#6]1:[#7]:[#6](:[#7]:[#6](:[#6]:1-[#6]#[#7])-[H])-[#6@@](-[H])(-[H])-[H])(-[H])-[H]'],"['InChI=1S/C6H6N4/c1-4-9-3-5(2-7)6(8)10-4/h3H,1H3,(H2,8,9,10)']",['YBPNIILOUYAGIF-UHFFFAOYSA-N']
5bromo2hydroxypyrimidine_cation->neut,0.44,5-bromo-2-hydroxypyrimidine,10.1002/9780470186763,"['[H]Oc1nc([H])c(Br)c([H])n1', '[H]c1nc(=O)n([H])c([H])c1Br']","['[#35]-[#6]1:[#6](:[#7]:[#6](-[#8]-[H]):[#7]:[#6]:1-[H])-[H]', '[#35]-[#6]1:[#6](:[#7](:[#6](=[#8]):[#7]:[#6]:1-[H])-[H])-[H]']","['InChI=1S/C4H3BrN2O/c5-3-1-6-4(8)7-2-3/h1-2H,(H,6,7,8)']",['VTUDATOSQGYWML-UHFFFAOYSA-N']
5bromo2mercaptopyrimidine_neut->an,5.47,"5-bromo-1,2-dihydropyrimidine-2-thione",10.1002/9780470186763,"['[H]Sc1nc([H])c(Br)c([H])n1', '[H]c1nc(=S)n([H])c([H])c1Br']","['[#35]-[#6]1:[#6](:[#7]:[#6](-[#16]-[H]):[#7]:[#6]:1-[H])-[H]', '[#35]-[#6]1:[#6](:[#7](:[#6](=[#16]):[#7]:[#6]:1-[H])-[H])-[H]']","['InChI=1S/C4H3BrN2S/c5-3-1-6-4(8)7-2-3/h1-2H,(H,6,7,8)']",['WHXPLARVWVJQDE-UHFFFAOYSA-N']
5bromo2hydroxypyrimidine_neut->an,7.36,5-bromo-2-hydroxypyrimidine,10.1002/9780470186763,"['[H]Oc1nc([H])c(Br)c([H])n1', '[H]c1nc(=O)n([H])c([H])c1Br']","['[#35]-[#6]1:[#6](:[#7]:[#6](-[#8]-[H]):[#7]:[#6]:1-[H])-[H]', '[#35]-[#6]1:[#6](:[#7](:[#6](=[#8]):[#7]:[#6]:1-[H])-[H])-[H]']","['InChI=1S/C4H3BrN2O/c5-3-1-6-4(8)7-2-3/h1-2H,(H,6,7,8)']",['VTUDATOSQGYWML-UHFFFAOYSA-N']
5bromo4hydroxypyrimidine_cation->neut,0.43,5-bromo-4-hydroxypyrimidine,10.1002/9780470186763,"['[H]Oc1nc([H])nc([H])c1Br', '[H]c1nc([H])n([H])c(=O)c1Br', '[H]c1nc(=O)c(Br)c([H])n1[H]']","['[#35]-[#6]1:[#6](:[#7]:[#6](:[#7]:[#6]:1-[H])-[H])-[#8]-[H]', '[#35]-[#6]1:[#6](:[#7](:[#6](:[#7]:[#6]:1-[H])-[H])-[H])=[#8]', '[#35]-[#6]1:[#6](:[#7]:[#6](:[#7](:[#6]:1-[H])-[H])-[H])=[#8]']","['InChI=1S/C4H3BrN2O/c5-3-1-6-2-7-4(3)8/h1-2H,(H,6,7,8)']",['CLJIGLPOBRSBNU-UHFFFAOYSA-N']
5bromo4hydroxypyrimidine_neut->an,7.15,5-bromo-4-hydroxypyrimidine,10.1002/9780470186763,"['[H]Oc1nc([H])nc([H])c1Br', '[H]c1nc([H])n([H])c(=O)c1Br', '[H]c1nc(=O)c(Br)c([H])n1[H]']","['[#35]-[#6]1:[#6](:[#7]:[#6](:[#7]:[#6]:1-[H])-[H])-[#8]-[H]', '[#35]-[#6]1:[#6](:[#7](:[#6](:[#7]:[#6]:1-[H])-[H])-[H])=[#8]', '[#35]-[#6]1:[#6](:[#7]:[#6](:[#7](:[#6]:1-[H])-[H])-[H])=[#8]']","['InChI=1S/C4H3BrN2O/c5-3-1-6-2-7-4(3)8/h1-2H,(H,6,7,8)']",['CLJIGLPOBRSBNU-UHFFFAOYSA-N']
5bromo4mercaptopyrimidine_cation->neut,-0.46,5-bromo-4(3h)-pyrimidinethione,10.1002/9780470186763,"['[H]Sc1nc([H])nc([H])c1Br', '[H]c1nc([H])n([H])c(=S)c1Br', '[H]c1nc(=S)c(Br)c([H])n1[H]']","['[#35]-[#6]1:[#6](:[#7]:[#6](:[#7]:[#6]:1-[H])-[H])-[#16]-[H]', '[#35]-[#6]1:[#6](:[#7](:[#6](:[#7]:[#6]:1-[H])-[H])-[H])=[#16]', '[#35]-[#6]1:[#6](:[#7]:[#6](:[#7](:[#6]:1-[H])-[H])-[H])=[#16]']","['InChI=1S/C4H3BrN2S/c5-3-1-6-2-7-4(3)8/h1-2H,(H,6,7,8)']",['POUIKNLENACUHO-UHFFFAOYSA-N']
5bromo4mercaptopyrimidine_neut->an,5.6,5-bromo-4(3h)-pyrimidinethione,10.1002/9780470186763,"['[H]Sc1nc([H])nc([H])c1Br', '[H]c1nc([H])n([H])c(=S)c1Br', '[H]c1nc(=S)c(Br)c([H])n1[H]']","['[#35]-[#6]1:[#6](:[#7]:[#6](:[#7]:[#6]:1-[H])-[H])-[#16]-[H]', '[#35]-[#6]1:[#6](:[#7](:[#6](:[#7]:[#6]:1-[H])-[H])-[H])=[#16]', '[#35]-[#6]1:[#6](:[#7]:[#6](:[#7](:[#6]:1-[H])-[H])-[H])=[#16]']","['InChI=1S/C4H3BrN2S/c5-3-1-6-2-7-4(3)8/h1-2H,(H,6,7,8)']",['POUIKNLENACUHO-UHFFFAOYSA-N']
5bromo4methoxypyrimidine_cation->neut,1.35,5-bromo-4-methoxypyrimidine,10.1002/9780470186763,['[H]c1nc([H])c(Br)c(OC([H])([H])[H])n1'],['[#35]-[#6]1:[#6](:[#7]:[#6](:[#7]:[#6]:1-[H])-[H])-[#8]-[#6@@](-[H])(-[H])-[H]'],"['InChI=1S/C5H5BrN2O/c1-9-5-4(6)2-7-3-8-5/h2-3H,1H3']",['GGTJMKOJYGIIKR-UHFFFAOYSA-N']
46diaminopyrimidine_cation->neut,6.01,"4,6-diaminopyrimidine",10.1002/9780470186763,['[H]c1nc(N([H])[H])c([H])c(N([H])[H])n1'],['[#7]1:[#6](:[#6](:[#6](:[#7]:[#6]:1-[H])-[#7](-[H])-[H])-[H])-[#7](-[H])-[H]'],"['InChI=1S/C4H6N4/c5-3-1-4(6)8-2-7-3/h1-2H,(H4,5,6,7,8)']",['MISVBCMQSJUHMH-UHFFFAOYSA-N']
46diamino5bromopyrimidine_cation->neut,4.22,"4,6-diamino-5-bromopyrimidine",10.1002/9780470186763,['[H]c1nc(N([H])[H])c(Br)c(N([H])[H])n1'],['[#7]1:[#6](:[#6](:[#6](:[#7]:[#6]:1-[H])-[#7](-[H])-[H])-[#35])-[#7](-[H])-[H]'],"['InChI=1S/C4H5BrN4/c5-2-3(6)8-1-9-4(2)7/h1H,(H4,6,7,8,9)']",['WEQDWMONNXSLMK-UHFFFAOYSA-N']
46diamino25dimethyl_cation->neut,7.08,"pyrimidine, 4,6-diamino-2,5-dimethyl- (7ci,8ci)",10.1002/9780470186763,['[H]N([H])c1nc(C([H])([H])[H])nc(N([H])[H])c1C([H])([H])[H]'],['[#7]1:[#6](:[#6](:[#6](:[#7]:[#6]:1-[#6@@](-[H])(-[H])-[H])-[#7](-[H])-[H])-[#6@@](-[H])(-[H])-[H])-[#7](-[H])-[H]'],"['InChI=1S/C6H10N4/c1-3-5(7)9-4(2)10-6(3)8/h1-2H3,(H4,7,8,9,10)']",['HZZKLBBMUXBGEL-UHFFFAOYSA-N']
46dihydroxypyrimidine_cation->neut,0.26,"4,6-dihydroxypyrimidine",10.1002/9780470186763,"['[H]Oc1nc([H])n([H])c(=O)c1[H]', '[H]Oc1c([H])c(=O)nc([H])n1[H]', '[H]c1c([O-])n([H])c([H])[n+]([H])c1=O']","['[#8](-[#6]1:[#7]:[#6](:[#7](:[#6](=[#8]):[#6]:1-[H])-[H])-[H])-[H]', '[#8](-[#6]1:[#7](:[#6](:[#7]:[#6](=[#8]):[#6]:1-[H])-[H])-[H])-[H]', '[#8]=[#6]1:[#7+](:[#6](:[#7](:[#6](-[#8-]):[#6]:1-[H])-[H])-[H])-[H]']","['InChI=1S/C4H4N2O2/c7-3-1-4(8)6-2-5-3/h1-2H,(H2,5,6,7,8)']",['DUFGYCAXVIUXIP-UHFFFAOYSA-N']
46dimercaptopyrimidine_neut->an,3.6,"4,6-dimercaptopyrimidine",10.1002/9780470186763,"['[H]Sc1nc([H])n([H])c(=S)c1[H]', '[H]Sc1c([H])c(=S)nc([H])n1[H]', '[H]c1c([S-])[n+]([H])c([H])[n+]([H])c1[S-]']","['[#16](-[#6]1:[#7]:[#6](:[#7](:[#6](=[#16]):[#6]:1-[H])-[H])-[H])-[H]', '[#16](-[#6]1:[#7](:[#6](:[#7]:[#6](=[#16]):[#6]:1-[H])-[H])-[H])-[H]', '[#16]-[#6]1:[#7+](:[#6](:[#7+](:[#6](-[#16-]):[#6]:1-[H])-[H])-[H])-[H]']","['InChI=1S/C4H4N2S2/c7-3-1-4(8)6-2-5-3/h1-2H,(H2,5,6,7,8)']",['SMRZXQLPBYIIND-UHFFFAOYSA-N']
46dimercaptopyrimidine_an->2an,9.7,"4,6-dimercaptopyrimidine",10.1002/9780470186763,"['[H]Sc1nc([H])n([H])c(=S)c1[H]', '[H]Sc1c([H])c(=S)nc([H])n1[H]', '[H]c1c([S-])[n+]([H])c([H])[n+]([H])c1[S-]']","['[#16](-[#6]1:[#7]:[#6](:[#7](:[#6](=[#16]):[#6]:1-[H])-[H])-[H])-[H]', '[#16](-[#6]1:[#7](:[#6](:[#7]:[#6](=[#16]):[#6]:1-[H])-[H])-[H])-[H]', '[#16]-[#6]1:[#7+](:[#6](:[#7+](:[#6](-[#16-]):[#6]:1-[H])-[H])-[H])-[H]']","['InChI=1S/C4H4N2S2/c7-3-1-4(8)6-2-5-3/h1-2H,(H2,5,6,7,8)']",['SMRZXQLPBYIIND-UHFFFAOYSA-N']
46dimethoxypyrimidine_cation->neut,1.49,"4,6-dimethoxypyrimidine",10.1002/9780470186763,['[H]c1nc(OC([H])([H])[H])c([H])c(OC([H])([H])[H])n1'],['[#7]1:[#6](:[#6](:[#6](:[#7]:[#6]:1-[H])-[#8]-[#6@@](-[H])(-[H])-[H])-[H])-[#8]-[#6@@](-[H])(-[H])-[H]'],"['InChI=1S/C6H8N2O2/c1-9-5-3-6(10-2)8-4-7-5/h3-4H,1-2H3']",['FPSPPRZKBUVEJQ-UHFFFAOYSA-N']
246triaminopyrimidine_2cation->cation,1.07,"2,4,6-triaminopyrimidine",10.1002/9780470186763,['[H]c1c(N([H])[H])nc(N([H])[H])nc1N([H])[H]'],['[#7]1:[#6](-[#7](-[H])-[H]):[#6](:[#6](:[#7]:[#6]:1-[#7](-[H])-[H])-[#7](-[H])-[H])-[H]'],"['InChI=1S/C4H7N5/c5-2-1-3(6)9-4(7)8-2/h1H,(H6,5,6,7,8,9)']",['JTTIOYHBNXDJOD-UHFFFAOYSA-N']
246triaminopyrimidine_cation->neut,7.18,"2,4,6-triaminopyrimidine",10.1002/9780470186763,['[H]c1c(N([H])[H])nc(N([H])[H])nc1N([H])[H]'],['[#7]1:[#6](-[#7](-[H])-[H]):[#6](:[#6](:[#7]:[#6]:1-[#7](-[H])-[H])-[#7](-[H])-[H])-[H]'],"['InChI=1S/C4H7N5/c5-2-1-3(6)9-4(7)8-2/h1H,(H6,5,6,7,8,9)']",['JTTIOYHBNXDJOD-UHFFFAOYSA-N']
123trimethylindole_cation->neut,-0.66,"1,2,3-trimethylindole",doi.org/10.1021/ja01072a040,['[H]c1c([H])c([H])c2c(c1[H])c(C([H])([H])[H])c(C([H])([H])[H])n2C([H])([H])[H]'],['[#7]1(:[#6]2:[#6](:[#6](:[#6]:1-[#6@@](-[H])(-[H])-[H])-[#6@@](-[H])(-[H])-[H]):[#6](:[#6](:[#6](:[#6]:2-[H])-[H])-[H])-[H])-[#6@@](-[H])(-[H])-[H]'],"['InChI=1S/C11H13N/c1-8-9(2)12(3)11-7-5-4-6-10(8)11/h4-7H,1-3H3']",['NRRVOLSTQHJDEG-UHFFFAOYSA-N']
25dimethylindole_cation->neut,0.26,"2,5.dimethylindole",doi.org/10.1021/ja01072a040,['[H]c1c(C([H])([H])[H])c([H])c2c([H])c(C([H])([H])[H])n([H])c2c1[H]'],['[#7]1(:[#6]2:[#6](:[#6](:[#6]:1-[#6@@](-[H])(-[H])-[H])-[H]):[#6](:[#6](:[#6](:[#6]:2-[H])-[H])-[#6@@](-[H])(-[H])-[H])-[H])-[H]'],"['InChI=1S/C10H11N/c1-7-3-4-10-9(5-7)6-8(2)11-10/h3-6,11H,1-2H3']",['ZFLFWZRPMDXJCW-UHFFFAOYSA-N']
2methyl2hindazole_cation->neut,2.02,2-methyl-2H-indazole,10.1016/S0065-2725(08)60103-8 ,['[H]c1c([H])c([H])c2c([H])n(C([H])([H])[H])nc2c1[H]'],['[#7]1(:[#7]:[#6]2:[#6](:[#6]:1-[H]):[#6](:[#6](:[#6](:[#6]:2-[H])-[H])-[H])-[H])-[#6@@](-[H])(-[H])-[H]'],"['InChI=1S/C8H8N2/c1-10-6-7-4-2-3-5-8(7)9-10/h2-6H,1H3']",['OAZHXZJUWHKFMP-UHFFFAOYSA-N']
phenophosphazine_neut->an,3,phenophosphazine,10.1002/9780470186503,['[H]OP1(=O)c2c([H])c([H])c([H])c([H])c2N([H])c2c([H])c([H])c([H])c([H])c21'],['[#8](-[#15@]1(=[#8])-[#6]2:[#6](-[#7](-[#6]3:[#6]-1:[#6](:[#6](:[#6](:[#6]:3-[H])-[H])-[H])-[H])-[H]):[#6](:[#6](:[#6](:[#6]:2-[H])-[H])-[H])-[H])-[H]'],"['InChI=1S/C12H10NO2P/c14-16(15)11-7-3-1-5-9(11)13-10-6-2-4-8-12(10)16/h1-8,13H,(H,14,15)']",['FKCVBHGCEUDJJS-UHFFFAOYSA-N']
chromane2carboxylic_neut->an,3.28,chromane-2-carboxylic acid,10.1002/9780470186961,['[H]OC(=O)[C@@]1([H])Oc2c([H])c([H])c([H])c([H])c2C([H])([H])C1([H])[H]'],['[#8]1-[#6@@](-[#6@](-[#6@](-[#6]2:[#6]-1:[#6](:[#6](:[#6](:[#6]:2-[H])-[H])-[H])-[H])(-[H])-[H])(-[H])-[H])(-[#6](-[#8]-[H])=[#8])-[H]'],"['InChI=1S/C10H10O3/c11-10(12)9-6-5-7-3-1-2-4-8(7)13-9/h1-4,9H,5-6H2,(H,11,12)/t9-/m0/s1']",['SFLFCQJQOIZMHF-VIFPVBQESA-N']
2345tetrahydrobenzoboxepine2carboxylic_neut->an,3.63,"2,3,4,5-tetrahydronenzo-b-oxepine-2-carboxylic acid",10.1002/9780470186961,['[H]OC(=O)[C@]1([H])Oc2c([H])c([H])c([H])c([H])c2C([H])([H])C([H])([H])C1([H])[H]'],['[#8]1-[#6@](-[#6@](-[#6@](-[#6@](-[#6]2:[#6]-1:[#6](:[#6](:[#6](:[#6]:2-[H])-[H])-[H])-[H])(-[H])-[H])(-[H])-[H])(-[H])-[H])(-[#6](-[#8]-[H])=[#8])-[H]'],"['InChI=1S/C11H12O3/c12-11(13)10-7-3-5-8-4-1-2-6-9(8)14-10/h1-2,4,6,10H,3,5,7H2,(H,12,13)/t10-/m1/s1']",['SABTWEGVUYBBSQ-SNVBAGLBSA-N']
23dihydrobenzofuran2carboxylic_neut->an,3.25,"2,3-dihydrobenzofuran-2-carboxylic acid",10.1002/9780470186961,['[H]OC(=O)[C@@]1([H])Oc2c([H])c([H])c([H])c([H])c2C1([H])[H]'],['[#8]1-[#6@](-[#6@](-[#6]2:[#6]-1:[#6](:[#6](:[#6](:[#6]:2-[H])-[H])-[H])-[H])(-[H])-[H])(-[H])-[#6](=[#8])-[#8]-[H]'],"['InChI=1S/C9H8O3/c10-9(11)8-5-6-3-1-2-4-7(6)12-8/h1-4,8H,5H2,(H,10,11)/t8-/m0/s1']",['WEVFUSSJCGAVOH-QMMMGPOBSA-N']
acridine4carboxylic_neut->an,7.4,acridine-4-carboxylic acid,10.1002/9780470186596,"['[H]OC(=O)c1c([H])c([H])c([H])c2c([H])c3c([H])c([H])c([H])c([H])c3nc12', '[H]c1c([H])c([H])c2c(c1[H])c([H])c1c([H])c([H])c([H])c(C(=O)[O-])c1[n+]2[H]']","['[#8](-[#6](=[#8])-[#6]1:[#6]2:[#7]:[#6]3:[#6](:[#6](:[#6]:2:[#6](:[#6](:[#6]:1-[H])-[H])-[H])-[H]):[#6](:[#6](:[#6](:[#6]:3-[H])-[H])-[H])-[H])-[H]', '[#8]=[#6](-[#8-])-[#6]1:[#6]2:[#7+](:[#6]3:[#6](:[#6](:[#6]:2:[#6](:[#6](:[#6]:1-[H])-[H])-[H])-[H]):[#6](:[#6](:[#6](:[#6]:3-[H])-[H])-[H])-[H])-[H]']","['InChI=1S/C14H9NO2/c16-14(17)11-6-3-5-10-8-9-4-1-2-7-12(9)15-13(10)11/h1-8H,(H,16,17)']",['NBIUCDPMOWCGIG-UHFFFAOYSA-N']
acridine2carboxylic_neut->an,5,acridine-2-carboxylic acid,10.1002/9780470186596,"['[H]OC(=O)c1c([H])c([H])c2nc3c([H])c([H])c([H])c([H])c3c([H])c2c1[H]', '[H]c1c([H])c([H])c2c(c1[H])c([H])c1c([H])c(C(=O)[O-])c([H])c([H])c1[n+]2[H]']","['[#8](-[#6](=[#8])-[#6]1:[#6](:[#6]2:[#6](:[#7]:[#6]3:[#6](:[#6]:2-[H]):[#6](:[#6](:[#6](:[#6]:3-[H])-[H])-[H])-[H]):[#6](:[#6]:1-[H])-[H])-[H])-[H]', '[#8]=[#6](-[#8-])-[#6]1:[#6](:[#6]2:[#6](:[#7+](:[#6]3:[#6](:[#6]:2-[H]):[#6](:[#6](:[#6](:[#6]:3-[H])-[H])-[H])-[H])-[H]):[#6](:[#6]:1-[H])-[H])-[H]']","['InChI=1S/C14H9NO2/c16-14(17)10-5-6-13-11(8-10)7-9-3-1-2-4-12(9)15-13/h1-8H,(H,16,17)']",['ZCIXDWOBWIAUNV-UHFFFAOYSA-N']
acridine9carboxylic_neut->an,4.8,acridine-9-carboxylic acid,10.1002/9780470186596,"['[H]c1c([H])c([H])c2c(c1[H])c(C(=O)[O-])c1c([H])c([H])c([H])c([H])c1[n+]2[H]', '[H]OC(=O)c1c2c([H])c([H])c([H])c([H])c2nc2c([H])c([H])c([H])c([H])c12']","['[#8]=[#6](-[#8-])-[#6]1:[#6]2:[#6](:[#7+](:[#6]3:[#6]:1:[#6](:[#6](:[#6](:[#6]:3-[H])-[H])-[H])-[H])-[H]):[#6](:[#6](:[#6](:[#6]:2-[H])-[H])-[H])-[H]', '[#8](-[#6](=[#8])-[#6]1:[#6]2:[#6](:[#7]:[#6]3:[#6]:1:[#6](:[#6](:[#6](:[#6]:3-[H])-[H])-[H])-[H]):[#6](:[#6](:[#6](:[#6]:2-[H])-[H])-[H])-[H])-[H]']","['InChI=1S/C14H9NO2/c16-14(17)13-9-5-1-3-7-11(9)15-12-8-4-2-6-10(12)13/h1-8H,(H,16,17)']",['IYRYQBAAHMBIFT-UHFFFAOYSA-N']
9aminobenzaacridine_cation->neut,7.1,9-aminobenza[a]acridine,10.1002/9780470186596,['[H]c1c(N([H])[H])c([H])c2nc3c([H])c([H])c4c([H])c([H])c([H])c([H])c4c3c([H])c2c1[H]'],['[#6]12:[#6](:[#6](:[#6](:[#6]3:[#6]:1:[#6](:[#6](:[#6](:[#6]:3-[H])-[H])-[H])-[H])-[H])-[H]):[#7]:[#6]1:[#6](:[#6]:2-[H]):[#6](:[#6](:[#6](:[#6]:1-[H])-[#7](-[H])-[H])-[H])-[H]'],"['InChI=1S/C17H12N2/c18-13-7-5-12-9-15-14-4-2-1-3-11(14)6-8-16(15)19-17(12)10-13/h1-10H,18H2']",['AIVUUJTZMDEYNV-UHFFFAOYSA-N']
10aminobenzaacridine_cation->neut,6.4,10-aminobenza[a]acridine,10.1002/9780470186596,['[H]c1c(N([H])[H])c([H])c2c([H])c3c(nc2c1[H])c([H])c([H])c1c([H])c([H])c([H])c([H])c13'],['[#7]1:[#6]2:[#6](:[#6]3:[#6](:[#6](:[#6]:2-[H])-[H]):[#6](:[#6](:[#6](:[#6]:3-[H])-[H])-[H])-[H]):[#6](:[#6]2:[#6]:1:[#6](:[#6](:[#6](-[#7](-[H])-[H]):[#6]:2-[H])-[H])-[H])-[H]'],"['InChI=1S/C17H12N2/c18-13-6-8-16-12(9-13)10-15-14-4-2-1-3-11(14)5-7-17(15)19-16/h1-10H,18H2']",['XAZFGPKKVBMPDR-UHFFFAOYSA-N']
3amino6chloroacridine_cation->neut,6.8,3-amino-6-chloroacridine,10.1002/9780470186596,['[H]c1c(Cl)c([H])c2nc3c([H])c(N([H])[H])c([H])c([H])c3c([H])c2c1[H]'],['[#17]-[#6]1:[#6](:[#6]2:[#7]:[#6]3:[#6](:[#6](:[#6]:2:[#6](:[#6]:1-[H])-[H])-[H]):[#6](:[#6](:[#6](-[#7](-[H])-[H]):[#6]:3-[H])-[H])-[H])-[H]'],"['InChI=1S/C13H9ClN2/c14-10-3-1-8-5-9-2-4-11(15)7-13(9)16-12(8)6-10/h1-7H,15H2']",['OCESZSGMAAGZGO-UHFFFAOYSA-N']
3amino9chloroacridine_cation->neut,6.4,3-amino-6-chloroacridine,10.1002/9780470186596,['[H]c1c([H])c([H])c2c(Cl)c3c([H])c([H])c(N([H])[H])c([H])c3nc2c1[H]'],['[#7]1:[#6]2:[#6](:[#6](:[#6]3:[#6]:1:[#6](:[#6](:[#6](:[#6]:3-[H])-[H])-[H])-[H])-[#17]):[#6](:[#6](:[#6](-[#7](-[H])-[H]):[#6]:2-[H])-[H])-[H]'],"['InChI=1S/C13H9ClN2/c14-13-9-3-1-2-4-11(9)16-12-7-8(15)5-6-10(12)13/h1-7H,15H2']",['VUZMIFMWXDKGLV-UHFFFAOYSA-N']
9amino3chloroacridine_cation->neut,8.9,9-amino-3-chloroacridine,10.1002/9780470186596,['[H]c1c([H])c([H])c2c(N([H])[H])c3c([H])c([H])c(Cl)c([H])c3nc2c1[H]'],['[#17]-[#6]1:[#6](:[#6]2:[#7]:[#6]3:[#6](:[#6](:[#6]:2:[#6](:[#6]:1-[H])-[H])-[#7](-[H])-[H]):[#6](:[#6](:[#6](:[#6]:3-[H])-[H])-[H])-[H])-[H]'],"['InChI=1S/C13H9ClN2/c14-8-5-6-10-12(7-8)16-11-4-2-1-3-9(11)13(10)15/h1-7H,(H2,15,16)']",['IRSNBSGPKPZUDV-UHFFFAOYSA-N']
9amino2methoxyacridine_cation->neut,9.2,9-amino-2-methoxyacridine,10.1002/9780470186596,['[H]c1c([H])c([H])c2c(N([H])[H])c3c([H])c(OC([H])([H])[H])c([H])c([H])c3nc2c1[H]'],['[#8](-[#6]1:[#6](:[#6]2:[#6](-[#7](-[H])-[H]):[#6]3:[#6](:[#7]:[#6]:2:[#6](:[#6]:1-[H])-[H]):[#6](:[#6](:[#6](:[#6]:3-[H])-[H])-[H])-[H])-[H])-[#6@](-[H])(-[H])-[H]'],"['InChI=1S/C14H12N2O/c1-17-9-6-7-13-11(8-9)14(15)10-4-2-3-5-12(10)16-13/h2-8H,1H3,(H2,15,16)']",['MPQHRPVQJUEINF-UHFFFAOYSA-N']
tacrine_cation->neut,10,tacrine,10.1002/9780470186596,['[H]c1c([H])c([H])c2c(N([H])[H])c3c(nc2c1[H])C([H])([H])C([H])([H])C([H])([H])C3([H])[H]'],['[#7]1:[#6]2:[#6](-[#6@@](-[#6@@](-[#6@](-[#6@]-2(-[H])-[H])(-[H])-[H])(-[H])-[H])(-[H])-[H]):[#6](-[#7](-[H])-[H]):[#6]2:[#6]:1:[#6](:[#6](:[#6](:[#6]:2-[H])-[H])-[H])-[H]'],"['InChI=1S/C13H14N2/c14-13-9-5-1-3-7-11(9)15-12-8-4-2-6-10(12)13/h1,3,5,7H,2,4,6,8H2,(H2,14,15)']",['YLJREFDVOIBQDA-UHFFFAOYSA-N']
27diaminoacridine_cation->neut,5.9,27diaminoacridine_cation->neut,10.1002/9780470186596,['[H]c1c(N([H])[H])c([H])c2c([H])c3c([H])c(N([H])[H])c([H])c([H])c3nc2c1[H]'],['[#7]1:[#6]2:[#6](:[#6](:[#6]3:[#6]:1:[#6](:[#6](:[#6](-[#7](-[H])-[H]):[#6]:3-[H])-[H])-[H])-[H]):[#6](:[#6](-[#7](-[H])-[H]):[#6](:[#6]:2-[H])-[H])-[H]'],"['InChI=1S/C13H11N3/c14-10-1-3-12-8(6-10)5-9-7-11(15)2-4-13(9)16-12/h1-7H,14-15H2']",['OYZJQXIQTJRRCG-UHFFFAOYSA-N']