compn,pKa,correct name,reference,smiles,smarts,inchi,inchiKey
2hydroxypyridineNoxyde_neut->an,5.97,2-hydroxypyridine 1-oxide,Lange's handbook of chemistry,"['[H]/[O+]=c1/c([H])c([H])c([H])c([H])n1[O-]', '[H]On1c([H])c([H])c([H])c([H])c1=O', '[H]/[O+]=c1\\c([H])c([H])c([H])c([H])n1[O-]', '[H]Oc1c([H])c([H])c([H])c([H])[n+]1[O-]']","['[#6]1(:[#6](-[H]):[#7](:[#6](:[#6](:[#6]:1-[H])-[H])=[#8+]\\[H])-[#8-])-[H]', '[#6]1(:[#6](-[H]):[#7](:[#6](:[#6](:[#6]:1-[H])-[H])=[#8])-[#8]-[H])-[H]', '[#8]=[#6]1:[#7](-[#8]-[H]):[#6](:[#6](:[#6](:[#6]:1-[H])-[H])-[H])-[H]', '[#6]1(:[#6](-[H]):[#7](:[#6](:[#6](:[#6]:1-[H])-[H])=[#8+]/[H])-[#8-])-[H]', '[#8](-[#6]1:[#7+](-[#8-]):[#6](:[#6](:[#6](:[#6]:1-[H])-[H])-[H])-[H])-[H]']","['InChI=1S/C5H4NO2/c7-5-3-1-2-4-6(5)8/h1-4H/q-1/p+1', 'InChI=1S/C5H5NO2/c7-5-3-1-2-4-6(5)8/h1-4,8H', 'InChI=1S/C5H5NO2/c7-5-3-1-2-4-6(5)8/h1-4,7H']","['SAYZJFOLGGTDDQ-UHFFFAOYSA-O', 'SNUSZUYTMHKCPM-UHFFFAOYSA-N', 'JVHZMYAXZUIZKS-UHFFFAOYSA-N']"
2hydroxyquinoline_cation->neut,-0.31,2-hydroxyquinoline,Lange's handbook of chemistry,"['[H]c1c([H])c([H])c2c(c1[H])c([H])c([H])c(=O)n2[H]', '[H]Oc1nc2c([H])c([H])c([H])c([H])c2c([H])c1[H]']","['[#6]1(:[#6](:[#6]2:[#6](:[#6](:[#6]:1-[H])-[H]):[#6](:[#6](:[#6](:[#7]:2-[H])=[#8])-[H])-[H])-[H])-[H]', '[#6]1(:[#6](:[#6]2:[#6](:[#6](:[#6]:1-[H])-[H]):[#6](:[#6](:[#6](:[#7]:2)-[#8]-[H])-[H])-[H])-[H])-[H]']","['InChI=1S/C9H7NO/c11-9-6-5-7-3-1-2-4-8(7)10-9/h1-6H,(H,10,11)']",['LISFMEBWQUVKPJ-UHFFFAOYSA-N']
2hydroxyquinoline_neut->an,11.74,2-hydroxyquinoline,Lange's handbook of chemistry,"['[H]c1c([H])c([H])c2c(c1[H])c([H])c([H])c(=O)n2[H]', '[H]Oc1nc2c([H])c([H])c([H])c([H])c2c([H])c1[H]']","['[#6]1(:[#6](:[#6]2:[#6](:[#6](:[#6]:1-[H])-[H]):[#6](:[#6](:[#6](:[#7]:2-[H])=[#8])-[H])-[H])-[H])-[H]', '[#6]1(:[#6](:[#6]2:[#6](:[#6](:[#6]:1-[H])-[H]):[#6](:[#6](:[#6](:[#7]:2)-[#8]-[H])-[H])-[H])-[H])-[H]']","['InChI=1S/C9H7NO/c11-9-6-5-7-3-1-2-4-8(7)10-9/h1-6H,(H,10,11)']",['LISFMEBWQUVKPJ-UHFFFAOYSA-N']
2iodoaniline_cation->neut,2.54,2-iodoaniline,Lange's handbook of chemistry,['[H]c1c([H])c([H])c(N([H])[H])c(I)c1[H]'],['[#6]1(:[#6](:[#6](:[#6](:[#6](:[#6]:1-[H])-[H])-[H])-[H])-[#53])-[#7](-[H])-[H]'],"['InChI=1S/C6H6IN/c7-5-3-1-2-4-6(5)8/h1-4H,8H2']",['UBPDKIDWEADHPP-UHFFFAOYSA-N']
2iodobenzoic_neut->an,2.86,2-iodobenzoic acid,Lange's handbook of chemistry,['[H]OC(=O)c1c([H])c([H])c([H])c([H])c1I'],['[#6]1(:[#6](:[#6](:[#6](:[#6](:[#6]:1-[H])-[H])-[#6](=[#8])-[#8]-[H])-[#53])-[H])-[H]'],"['InChI=1S/C7H5IO2/c8-6-4-2-1-3-5(6)7(9)10/h1-4H,(H,9,10)']",['CJNZAXGUTKBIHP-UHFFFAOYSA-N']
2iodophenol_neut->an,8.46,2-iodophenol,Lange's handbook of chemistry,['[H]Oc1c([H])c([H])c([H])c([H])c1I'],['[#6]1(:[#6](:[#6](:[#6](:[#6](:[#6]:1-[H])-[H])-[H])-[#8]-[H])-[#53])-[H]'],"['InChI=1S/C6H5IO/c7-5-3-1-2-4-6(5)8/h1-4,8H']",['KQDJTBPASNJQFQ-UHFFFAOYSA-N']
2iodopyridine_cation->neut,1.82,2-iodopyridine,Lange's handbook of chemistry,['[H]c1nc(I)c([H])c([H])c1[H]'],['[#6]1(:[#6](:[#6](-[#53]):[#7]:[#6](:[#6]:1-[H])-[H])-[H])-[H]'],['InChI=1S/C5H4IN/c6-5-3-1-2-4-7-5/h1-4H'],['CCZWSTFVHJPCEM-UHFFFAOYSA-N']
2iodopropanoic_neut->an,3.11,2-iodopropanoic acid,Lange's handbook of chemistry,['[H]OC(=O)[C@]([H])(I)C([H])([H])[H]'],['[#53]-[#6@](-[#6@](-[H])(-[H])-[H])(-[#6](-[#8]-[H])=[#8])-[H]'],"['InChI=1S/C3H5IO2/c1-2(4)3(5)6/h2H,1H3,(H,5,6)/t2-/m1/s1']",['KZLYQYPURWXOEW-UWTATZPHSA-N']
2mercaptopropanoic_neut->an,3.64,2-mercaptopropanoic acid,"R. S. Saxena, P. Singh, J. Indian Chem. Soc., 47, 1076 (1970)",['[H]OC(=O)[C@]([H])(S[H])C([H])([H])[H]'],['[#16](-[#6@](-[#6@](-[H])(-[H])-[H])(-[#6](-[#8]-[H])=[#8])-[H])-[H]'],"['InChI=1S/C3H6O2S/c1-2(6)3(4)5/h2,6H,1H3,(H,4,5)/t2-/m1/s1']",['PMNLUUOXGOOLSP-UWTATZPHSA-N']
2mercaptopropanoic_an->2an,10.21,2-mercaptopropanoic acid,"R. S. Saxena, P. Singh, J. Indian Chem. Soc., 47, 1076 (1970)",['[H]OC(=O)[C@]([H])(S[H])C([H])([H])[H]'],['[#16](-[#6@](-[#6@](-[H])(-[H])-[H])(-[#6](-[#8]-[H])=[#8])-[H])-[H]'],"['InChI=1S/C3H6O2S/c1-2(6)3(4)5/h2,6H,1H3,(H,4,5)/t2-/m1/s1']",['PMNLUUOXGOOLSP-UWTATZPHSA-N']
2mercaptopyridine_cation->neut,-1.07,2-mercaptopyridine,Lange's handbook of chemistry,"['[H]Sc1nc([H])c([H])c([H])c1[H]', '[H]c1c([H])c([H])n([H])c(=S)c1[H]']","['[#16](-[#6]1:[#7]:[#6](:[#6](:[#6](:[#6]:1-[H])-[H])-[H])-[H])-[H]', '[#16]=[#6]1:[#7](:[#6](:[#6](:[#6](:[#6]:1-[H])-[H])-[H])-[H])-[H]']","['InChI=1S/C5H5NS/c7-5-3-1-2-4-6-5/h1-4H,(H,6,7)']",['WHMDPDGBKYUEMW-UHFFFAOYSA-N']
2mercaptopyridine_neut->an,10,2-mercaptopyridine,Lange's handbook of chemistry,"['[H]Sc1nc([H])c([H])c([H])c1[H]', '[H]c1c([H])c([H])n([H])c(=S)c1[H]']","['[#16](-[#6]1:[#7]:[#6](:[#6](:[#6](:[#6]:1-[H])-[H])-[H])-[H])-[H]', '[#16]=[#6]1:[#7](:[#6](:[#6](:[#6](:[#6]:1-[H])-[H])-[H])-[H])-[H]']","['InChI=1S/C5H5NS/c7-5-3-1-2-4-6-5/h1-4H,(H,6,7)']",['WHMDPDGBKYUEMW-UHFFFAOYSA-N']
2mercaptoquinoline_cation->neut,-1.44,2-mercaptoquinoline,Lange's handbook of chemistry,"['[H]c1c([H])c([H])c2c(c1[H])c([H])c([H])c(=S)n2[H]', '[H]Sc1nc2c([H])c([H])c([H])c([H])c2c([H])c1[H]']","['[#16]=[#6]1:[#7](:[#6]2:[#6](:[#6](:[#6]:1-[H])-[H]):[#6](:[#6](:[#6](:[#6]:2-[H])-[H])-[H])-[H])-[H]', '[#16](-[#6]1:[#7]:[#6]2:[#6](:[#6](:[#6]:1-[H])-[H]):[#6](:[#6](:[#6](:[#6]:2-[H])-[H])-[H])-[H])-[H]']","['InChI=1S/C9H7NS/c11-9-6-5-7-3-1-2-4-8(7)10-9/h1-6H,(H,10,11)']",['KXZSVYHFYHTNBI-UHFFFAOYSA-N']
2mercaptoquinoline_neut->an,10.21,2-mercaptoquinoline,Lange's handbook of chemistry,"['[H]c1c([H])c([H])c2c(c1[H])c([H])c([H])c(=S)n2[H]', '[H]Sc1nc2c([H])c([H])c([H])c([H])c2c([H])c1[H]']","['[#16]=[#6]1:[#7](:[#6]2:[#6](:[#6](:[#6]:1-[H])-[H]):[#6](:[#6](:[#6](:[#6]:2-[H])-[H])-[H])-[H])-[H]', '[#16](-[#6]1:[#7]:[#6]2:[#6](:[#6](:[#6]:1-[H])-[H]):[#6](:[#6](:[#6](:[#6]:2-[H])-[H])-[H])-[H])-[H]']","['InChI=1S/C9H7NS/c11-9-6-5-7-3-1-2-4-8(7)10-9/h1-6H,(H,10,11)']",['KXZSVYHFYHTNBI-UHFFFAOYSA-N']
2methoxycarbonylpyridine_cation->neut,2.21,2-(methoxycarbonyl)pyridine,Lange's handbook of chemistry,['[H]c1nc(C(=O)OC([H])([H])[H])c([H])c([H])c1[H]'],['[#6]1(:[#6](-[#6](=[#8])-[#8]-[#6@@](-[H])(-[H])-[H]):[#7]:[#6](:[#6](:[#6]:1-[H])-[H])-[H])-[H]'],"['InChI=1S/C7H7NO2/c1-10-7(9)6-4-2-3-5-8-6/h2-5H,1H3']",['NMMIHXMBOZYNET-UHFFFAOYSA-N']
2methoxyethylamine_cation->neut,9.45,2methoxyethylamine,Lange's handbook of chemistry,['[H]N([H])C([H])([H])C([H])([H])OC([H])([H])[H]'],['[#8](-[#6@@](-[#6@@](-[#7](-[H])-[H])(-[H])-[H])(-[H])-[H])-[#6@](-[H])(-[H])-[H]'],"['InChI=1S/C3H9NO/c1-5-3-2-4/h2-4H2,1H3']",['ASUDFOJKTJLAIK-UHFFFAOYSA-N']
2methoxypyridine_cation->neut,3.06,2-methoxypyridine,Lange's handbook of chemistry,['[H]c1nc(OC([H])([H])[H])c([H])c([H])c1[H]'],['[#6]1(:[#6](:[#7]:[#6](:[#6](:[#6]:1-[H])-[H])-[H])-[#8]-[#6@@](-[H])(-[H])-[H])-[H]'],"['InChI=1S/C6H7NO/c1-8-6-4-2-3-5-7-6/h2-5H,1H3']",['IWTFOFMTUOBLHG-UHFFFAOYSA-N']
4methyl34dihydroquinazoline_cation->neut,9.19,"2-methyl-3,4-Dihydroquinazoline",10.1002/jcc.23068,"['[H]C1=Nc2c([H])c([H])c([H])c([H])c2[C@@]([H])(C([H])([H])[H])N1[H]', '[H]C1=N[C@]([H])(C([H])([H])[H])c2c([H])c([H])c([H])c([H])c2N1[H]']","['[#7]1-[#6]2:[#6](-[#6@@](-[#7](-[#6]=1-[H])-[H])(-[H])-[#6@@](-[H])(-[H])-[H]):[#6](:[#6](:[#6](:[#6]:2-[H])-[H])-[H])-[H]', '[#7]1(-[#6]2:[#6](-[#6@@](-[#7]=[#6]-1-[H])(-[H])-[#6@@](-[H])(-[H])-[H]):[#6](:[#6](:[#6](:[#6]:2-[H])-[H])-[H])-[H])-[H]']","['InChI=1S/C9H10N2/c1-7-8-4-2-3-5-9(8)11-6-10-7/h2-7H,1H3,(H,10,11)/t7-/m1/s1']",['MIEIUAXMZHUVFO-SSDOTTSWSA-N']
2methyl4nitrobenzoic_neut->an,2.95,2-methyl-4-nitrobenzoic acid,"International Union of Pure and Applied Chemistry; E. P Serjeant and Boyd Dempsey. ""Ionisation Constants of Organic Acids in Aqueous Solution""; Oxford/Pergamon 1979 (Oxford IUPAC chemical data series)",['[H]OC(=O)c1c([H])c([H])c([N+](=O)[O-])c([H])c1C([H])([H])[H]'],['[#8](-[#6](=[#8])-[#6]1:[#6](:[#6](:[#6](-[#7+](=[#8])-[#8-]):[#6](:[#6]:1-[H])-[H])-[H])-[#6@@](-[H])(-[H])-[H])-[H]'],"['InChI=1S/C8H7NO4/c1-5-4-6(9(12)13)2-3-7(5)8(10)11/h2-4H,1H3,(H,10,11)']",['XXXOBNJIIZQSPT-UHFFFAOYSA-N']
2methyl6nitrobenzoic_neut->an,1.87,2-methyl-6-nitrobenzoic acid,Lange's handbook of chemistry,['[H]OC(=O)c1c([N+](=O)[O-])c([H])c([H])c([H])c1C([H])([H])[H]'],['[#8]=[#7+](-[#8-])-[#6]1:[#6](:[#6](:[#6](:[#6](:[#6]:1-[H])-[H])-[H])-[#6@@](-[H])(-[H])-[H])-[#6](=[#8])-[#8]-[H]'],"['InChI=1S/C8H7NO4/c1-5-3-2-4-6(9(12)13)7(5)8(10)11/h2-4H,1H3,(H,10,11)']",['CCXSGQZMYLXTOI-UHFFFAOYSA-N']
2methylaminopyrazine_cation->neut,3.39,2-methylaminopyrazine,10.1002/jcc.23068,['[H]c1nc([H])c(N([H])C([H])([H])[H])nc1[H]'],['[#6]1(:[#6](:[#7]:[#6](:[#6](-[H]):[#7]:1)-[H])-[H])-[#7](-[#6@@](-[H])(-[H])-[H])-[H]'],"['InChI=1S/C5H7N3/c1-6-5-4-7-2-3-8-5/h2-4H,1H3,(H,6,8)']",['VGKOARVVEXZTPU-UHFFFAOYSA-N']
2methylimidazole_cation->neut,7.85,2methylimidazole,10.1002/jcc.23068,['[H]c1nc(C([H])([H])[H])n([H])c1[H]'],['[#6]1(:[#7]:[#6](:[#6](-[H]):[#7]:1-[H])-[H])-[#6@@](-[H])(-[H])-[H]'],"['InChI=1S/C4H6N2/c1-4-5-2-3-6-4/h2-3H,1H3,(H,5,6)']",['LXBGSDVWAMZHDD-UHFFFAOYSA-N']
2methylindole_cation->neut,-0.2,2-methylindole,10.1002/jcc.23068,['[H]c1c([H])c([H])c2c(c1[H])c([H])c(C([H])([H])[H])n2[H]'],['[#6]12:[#6](:[#6](:[#6](:[#6](:[#6]:1-[H])-[H])-[H])-[H]):[#7](:[#6](:[#6]:2-[H])-[#6@@](-[H])(-[H])-[H])-[H]'],"['InChI=1S/C9H9N/c1-7-6-8-4-2-3-5-9(8)10-7/h2-6,10H,1H3']",['BHNHHSOHWZKFOX-UHFFFAOYSA-N']
2methylpiperidine_cation->neut,11.08,2-Methylpiperidine,"J. P. Horwitz and C. C. Rila. J. Am. Chem. Soc. 80, 431 (1958).",['[H]N1C([H])([H])C([H])([H])C([H])([H])C([H])([H])[C@]1([H])C([H])([H])[H]'],['[#7]1(-[#6@](-[#6@](-[#6@](-[#6@@](-[#6@@]-1(-[H])-[H])(-[H])-[H])(-[H])-[H])(-[H])-[H])(-[#6@@](-[H])(-[H])-[H])-[H])-[H]'],"['InChI=1S/C6H13N/c1-6-4-2-3-5-7-6/h6-7H,2-5H2,1H3/t6-/m0/s1']",['NNWUEBIEOFQMSS-LURJTMIESA-N']
2methylpyrazine_cation->neut,1.46,2-methylpyrazine,10.1002/jcc.23068,['[H]c1nc([H])c(C([H])([H])[H])nc1[H]'],['[#6]1(:[#6](:[#7]:[#6](:[#6](-[H]):[#7]:1)-[H])-[#6@@](-[H])(-[H])-[H])-[H]'],"['InChI=1S/C5H6N2/c1-5-4-6-2-3-7-5/h2-4H,1H3']",['CAWHJQAVHZEVTJ-UHFFFAOYSA-N']
2methylpyridine_cation->neut,5.96,2-methylpyridine,Lange's handbook of chemistry,['[H]c1nc(C([H])([H])[H])c([H])c([H])c1[H]'],['[#6]1(:[#6](:[#7]:[#6](:[#6](:[#6]:1-[H])-[H])-[H])-[#6@@](-[H])(-[H])-[H])-[H]'],"['InChI=1S/C6H7N/c1-6-4-2-3-5-7-6/h2-5H,1H3']",['BSKHPKMHTQYZBB-UHFFFAOYSA-N']
2methylpyridinenoxyde_cation->neut,1.03,2-methylpyridine 1-oxide,Lange's handbook of chemistry,['[H]c1c([H])c([H])[n+]([O-])c(C([H])([H])[H])c1[H]'],['[#6]1(:[#6](:[#7+](:[#6](:[#6](:[#6]:1-[H])-[H])-[H])-[#8-])-[#6@@](-[H])(-[H])-[H])-[H]'],"['InChI=1S/C6H7NO/c1-6-4-2-3-5-7(6)8/h2-5H,1H3']",['CFZKDDTWZYUZKS-UHFFFAOYSA-N']
2methylpyrrole_cation->neut,-0.21,2-methylpyrrole,doi.org/10.1021/ja00901a020,['[H]c1c([H])c(C([H])([H])[H])n([H])c1[H]'],['[#6]1(:[#6](:[#6](:[#6](:[#7]:1-[H])-[#6@@](-[H])(-[H])-[H])-[H])-[H])-[H]'],"['InChI=1S/C5H7N/c1-5-3-2-4-6-5/h2-4,6H,1H3']",['TVCXVUHHCUYLGX-UHFFFAOYSA-N']
2methylquinazoline_cation->neut,3,2-methylquinazoline,pubs.rsc.org/en/content/articlepdf/1967/j2/j29670000950,['[H]c1c([H])c([H])c2c([H])nc(C([H])([H])[H])nc2c1[H]'],['[#6]1(:[#6](:[#6]2:[#6](:[#6](:[#6]:1-[H])-[H]):[#7]:[#6](:[#7]:[#6]:2-[H])-[#6@@](-[H])(-[H])-[H])-[H])-[H]'],"['InChI=1S/C9H8N2/c1-7-10-6-8-4-2-3-5-9(8)11-7/h2-6H,1H3']",['DXPQTHAFYUTZRR-UHFFFAOYSA-N']
2methylquinoline_cation->neut,5.7,2-methylquinoline,10.1002/jcc.23068,['[H]c1c([H])c([H])c2c([H])c([H])c(C([H])([H])[H])nc2c1[H]'],['[#6]1(:[#6](:[#6]2:[#6](:[#6](:[#6]:1-[H])-[H]):[#7]:[#6](:[#6](:[#6]:2-[H])-[H])-[#6@@](-[H])(-[H])-[H])-[H])-[H]'],"['InChI=1S/C10H9N/c1-8-6-7-9-4-2-3-5-10(9)11-8/h2-7H,1H3']",['SMUQFGGVLNAIOZ-UHFFFAOYSA-N']
2methyltetrahydropyridine_cation->neut,9.55,6-methyltetrahydropyridine,10.1002/jcc.23068,"['[H]C([H])([H])C1=NC([H])([H])C([H])([H])C([H])([H])C1([H])[H]', '[H]C1=C(C([H])([H])[H])N([H])C([H])([H])C([H])([H])C1([H])[H]']","['[#6]1(-[#6@](-[#6@@](-[#6@](-[#6@](-[H])(-[H])-[#7]=1)(-[H])-[H])(-[H])-[H])(-[H])-[H])-[#6@@](-[H])(-[H])-[H]', '[#6]1(-[#6@@](-[#6@](-[#6@](-[H])(-[H])-[#7](-[#6]=1-[#6@@](-[H])(-[H])-[H])-[H])(-[H])-[H])(-[H])-[H])-[H]']","['InChI=1S/C6H11N/c1-6-4-2-3-5-7-6/h2-5H2,1H3', 'InChI=1S/C6H11N/c1-6-4-2-3-5-7-6/h4,7H,2-3,5H2,1H3']","['BJGMTCROJYGHSX-UHFFFAOYSA-N', 'MZJNLFJJQLRMAJ-UHFFFAOYSA-N']"
2methylthiazole_cation->neut,3.59,2-methylthiazole,Lange's handbook of chemistry,['[H]c1nc(C([H])([H])[H])sc1[H]'],['[#16]1:[#6](:[#7]:[#6](:[#6]:1-[H])-[H])-[#6@@](-[H])(-[H])-[H]'],"['InChI=1S/C4H5NS/c1-4-5-2-3-6-4/h2-3H,1H3']",['VZWOXDYRBDIHMA-UHFFFAOYSA-N']
2naphtoic_neut->an,4.16,2-naphthoic acid,Lange's handbook of chemistry,['[H]OC(=O)c1c([H])c([H])c2c([H])c([H])c([H])c([H])c2c1[H]'],['[#6]1(:[#6](:[#6]2:[#6](:[#6](:[#6]:1-[H])-[H]):[#6](:[#6](:[#6](:[#6]:2-[H])-[H])-[#6](=[#8])-[#8]-[H])-[H])-[H])-[H]'],"['InChI=1S/C11H8O2/c12-11(13)10-6-5-8-3-1-2-4-9(8)7-10/h1-7H,(H,12,13)']",['UOBYKYZJUGYBDK-UHFFFAOYSA-N']
2naphtol_neut->an,9.57,2-naphtol,Lange's handbook of chemistry,['[H]Oc1c([H])c([H])c2c([H])c([H])c([H])c([H])c2c1[H]'],['[#6]1(:[#6](:[#6]2:[#6](:[#6](:[#6]:1-[H])-[H]):[#6](:[#6](:[#6](:[#6]:2-[H])-[#8]-[H])-[H])-[H])-[H])-[H]'],"['InChI=1S/C10H8O/c11-10-6-5-8-3-1-2-4-9(8)7-10/h1-7,11H']",['JWAZRIHNYRIHIV-UHFFFAOYSA-N']
2naphtylamine_cation->neut,4.11,2-naphtylamine,Lange's handbook of chemistry,['[H]c1c([H])c([H])c2c([H])c(N([H])[H])c([H])c([H])c2c1[H]'],['[#7](-[#6]1:[#6](:[#6]2:[#6](:[#6](:[#6]:1-[H])-[H]):[#6](:[#6](:[#6](:[#6]:2-[H])-[H])-[H])-[H])-[H])(-[H])-[H]'],"['InChI=1S/C10H9N/c11-10-6-5-8-3-1-2-4-9(8)7-10/h1-7H,11H2']",['JBIJLHTVPXGSAM-UHFFFAOYSA-N']
2nitrohydroquinone_an->2an,10.03,2-nitrohydroquinone,Lange's handbook of chemistry,['[H]Oc1c([H])c([H])c(O[H])c([N+](=O)[O-])c1[H]'],['[#8](-[#6]1:[#6](-[#7+](=[#8])-[#8-]):[#6](:[#6](-[#8]-[H]):[#6](:[#6]:1-[H])-[H])-[H])-[H]'],"['InChI=1S/C6H5NO4/c8-4-1-2-6(9)5(3-4)7(10)11/h1-3,8-9H']",['VIIYYMZOGKODQG-UHFFFAOYSA-N']
2nitrohydroquinone_neut->an,7.63,2-nitrohydroquinone,Lange's handbook of chemistry,['[H]Oc1c([H])c([H])c(O[H])c([N+](=O)[O-])c1[H]'],['[#8](-[#6]1:[#6](-[#7+](=[#8])-[#8-]):[#6](:[#6](-[#8]-[H]):[#6](:[#6]:1-[H])-[H])-[H])-[H]'],"['InChI=1S/C6H5NO4/c8-4-1-2-6(9)5(3-4)7(10)11/h1-3,8-9H']",['VIIYYMZOGKODQG-UHFFFAOYSA-N']
2nitroimidazole_cation->neut,-0.81,2-nitroimidazole,10.1002/ejoc.201700749,['[H]c1nc([N+](=O)[O-])n([H])c1[H]'],['[#6]1(:[#7]:[#6](:[#6](-[H]):[#7]:1-[H])-[H])-[#7+](=[#8])-[#8-]'],"['InChI=1S/C3H3N3O2/c7-6(8)3-4-1-2-5-3/h1-2H,(H,4,5)']",['YZEUHQHUFTYLPH-UHFFFAOYSA-N']
2nitropyridine_cation->neut,-2.06,2-nitropyridine,Lange's handbook of chemistry,['[H]c1nc([N+](=O)[O-])c([H])c([H])c1[H]'],['[#6]1(:[#6](:[#7]:[#6](:[#6](:[#6]:1-[H])-[H])-[H])-[#7+](=[#8])-[#8-])-[H]'],['InChI=1S/C5H4N2O2/c8-7(9)5-3-1-2-4-6-5/h1-4H'],['HLTDBMHJSBSAOM-UHFFFAOYSA-N']
2nndimethylaminobenzoic_cation->neut,1.4,2-(dimethylamino)benzoic acid,"J. T. Edsall and J. Wyman. J. Am. Chem. Soc. 57, 1964 (1935).","['[H]c1c([H])c([H])c([N+]([H])(C([H])([H])[H])C([H])([H])[H])c(C(=O)[O-])c1[H]', '[H]OC(=O)c1c([H])c([H])c([H])c([H])c1N(C([H])([H])[H])C([H])([H])[H]']","['[#8]=[#6](-[#8-])-[#6]1:[#6](-[#7@@+](-[#6@@](-[H])(-[H])-[H])(-[#6@@](-[H])(-[H])-[H])-[H]):[#6](:[#6](:[#6](:[#6]:1-[H])-[H])-[H])-[H]', '[#8](-[#6](=[#8])-[#6]1:[#6](-[#7](-[#6@@](-[H])(-[H])-[H])-[#6@@](-[H])(-[H])-[H]):[#6](:[#6](:[#6](:[#6]:1-[H])-[H])-[H])-[H])-[H]']","['InChI=1S/C9H11NO2/c1-10(2)8-6-4-3-5-7(8)9(11)12/h3-6H,1-2H3,(H,11,12)']",['DVVXXHVHGGWWPE-UHFFFAOYSA-N']
2nndimethylaminobenzoic_neut->an,8.51,2-(dimethylamino)benzoic acid,"D. L. Hammick and S. F. Mason. J. Chem. Soc. 1950, 345.","['[H]c1c([H])c([H])c([N+]([H])(C([H])([H])[H])C([H])([H])[H])c(C(=O)[O-])c1[H]', '[H]OC(=O)c1c([H])c([H])c([H])c([H])c1N(C([H])([H])[H])C([H])([H])[H]']","['[#8]=[#6](-[#8-])-[#6]1:[#6](-[#7@@+](-[#6@@](-[H])(-[H])-[H])(-[#6@@](-[H])(-[H])-[H])-[H]):[#6](:[#6](:[#6](:[#6]:1-[H])-[H])-[H])-[H]', '[#8](-[#6](=[#8])-[#6]1:[#6](-[#7](-[#6@@](-[H])(-[H])-[H])-[#6@@](-[H])(-[H])-[H]):[#6](:[#6](:[#6](:[#6]:1-[H])-[H])-[H])-[H])-[H]']","['InChI=1S/C9H11NO2/c1-10(2)8-6-4-3-5-7(8)9(11)12/h3-6H,1-2H3,(H,11,12)']",['DVVXXHVHGGWWPE-UHFFFAOYSA-N']
2oxopropanoic_neut->an,2.49,2-oxopropanoic acid,Lange's handbook of chemistry,['[H]OC(=O)C(=O)C([H])([H])[H]'],"['[#6](=[#8])(-[#8]-[H])-[#6](=[#8])-[#6@@](-[H])(-[H])-[H]', '[H]-[#6@](-[H])(-[H])-[#6](=[#8])-[#6](=[#8])-[#8]-[H]']","['InChI=1S/C3H4O3/c1-2(4)3(5)6/h1H3,(H,5,6)']",['LCTONWCANYUPML-UHFFFAOYSA-N']
2oxynaphtoquinone_neut->an,4,2-hydroxynaphthoquinone,"G. KORTUM, W. VOGEL and K. ANDRUSSOW, DISSOCIATION CONSTANTS OF ORGANIC ACIDS IN AQUEOUS SOLUTION ","['[H]OC1=C([H])C(=O)c2c([H])c([H])c([H])c([H])c2C1=O', '[H]/[O+]=C1\\C([O-])=C([H])C(=O)c2c([H])c([H])c([H])c([H])c21', '[H]OC1=C([H])C(=O)C(=O)c2c([H])c([H])c([H])c([H])c21']","['[#6]1(:[#6](:[#6]2:[#6](:[#6](:[#6]:1-[H])-[H])-[#6](-[#6](=[#6](-[#6]-2=[#8])-[H])-[#8]-[H])=[#8])-[H])-[H]', '[#6]1(:[#6](:[#6]2:[#6](:[#6](:[#6]:1-[H])-[H])/[#6](-[#6](=[#6](-[#6]-2=[#8])-[H])-[#8-])=[#8+]/[H])-[H])-[H]', '[#6]1(:[#6](:[#6]2:[#6](:[#6](:[#6]:1-[H])-[H])-[#6](-[#6](-[#6](=[#6]-2-[#8]-[H])-[H])=[#8])=[#8])-[H])-[H]']","['InChI=1S/C10H6O3/c11-8-5-9(12)10(13)7-4-2-1-3-6(7)8/h1-5,12H', 'InChI=1S/C10H6O3/c11-8-5-9(12)10(13)7-4-2-1-3-6(7)8/h1-5,11H']","['CSFWPUWCSPOLJW-UHFFFAOYSA-N', 'WVCHIGAIXREVNS-UHFFFAOYSA-N']"
2pchlorocinnamic_neut->an,4.23,2-chlorocinnamic acid,Lange's handbook of chemistry,['[H]OC(=O)/C([H])=C(\\[H])c1c([H])c([H])c([H])c([H])c1Cl'],['[#8](-[#6](=[#8])/[#6](=[#6](/[#6]1:[#6](:[#6](:[#6](:[#6](:[#6]:1-[#17])-[H])-[H])-[H])-[H])-[H])-[H])-[H]'],"['InChI=1S/C9H7ClO2/c10-8-4-2-1-3-7(8)5-6-9(11)12/h1-6H,(H,11,12)/b6-5+']",['KJRRTHHNKJBVBO-AATRIKPKSA-N']
2ph5phimidazole_cation->neut,5.64,"2,5-diphenylimidazole",10.1002/ejoc.201700749,"['[H]c1c([H])c([H])c(-c2nc(-c3c([H])c([H])c([H])c([H])c3[H])n([H])c2[H])c([H])c1[H]', '[H]c1nc(-c2c([H])c([H])c([H])c([H])c2[H])n([H])c1-c1c([H])c([H])c([H])c([H])c1[H]']","['[#6]1(:[#7]:[#6](:[#6](-[H]):[#7]:1-[H])-[#6]1:[#6](:[#6](:[#6](:[#6](:[#6]:1-[H])-[H])-[H])-[H])-[H])-[#6]1:[#6](:[#6](:[#6](:[#6](:[#6]:1-[H])-[H])-[H])-[H])-[H]', '[#6]1(:[#7](:[#6](:[#6](-[H]):[#7]:1)-[#6]1:[#6](:[#6](:[#6](:[#6](:[#6]:1-[H])-[H])-[H])-[H])-[H])-[H])-[#6]1:[#6](:[#6](:[#6](:[#6](:[#6]:1-[H])-[H])-[H])-[H])-[H]']","['InChI=1S/C15H12N2/c1-3-7-12(8-4-1)14-11-16-15(17-14)13-9-5-2-6-10-13/h1-11H,(H,16,17)']",['FHHCKYIBYRNHOZ-UHFFFAOYSA-N']
2ph5phimidazole_neut->an,12.53,"2,5-diphenylimidazole",doi.org/10.1021/jo01066a039,"['[H]c1c([H])c([H])c(-c2nc(-c3c([H])c([H])c([H])c([H])c3[H])n([H])c2[H])c([H])c1[H]', '[H]c1nc(-c2c([H])c([H])c([H])c([H])c2[H])n([H])c1-c1c([H])c([H])c([H])c([H])c1[H]']","['[#6]1(:[#7]:[#6](:[#6](-[H]):[#7]:1-[H])-[#6]1:[#6](:[#6](:[#6](:[#6](:[#6]:1-[H])-[H])-[H])-[H])-[H])-[#6]1:[#6](:[#6](:[#6](:[#6](:[#6]:1-[H])-[H])-[H])-[H])-[H]', '[#6]1(:[#7](:[#6](:[#6](-[H]):[#7]:1)-[#6]1:[#6](:[#6](:[#6](:[#6](:[#6]:1-[H])-[H])-[H])-[H])-[H])-[H])-[#6]1:[#6](:[#6](:[#6](:[#6](:[#6]:1-[H])-[H])-[H])-[H])-[H]']","['InChI=1S/C15H12N2/c1-3-7-12(8-4-1)14-11-16-15(17-14)13-9-5-2-6-10-13/h1-11H,(H,16,17)']",['FHHCKYIBYRNHOZ-UHFFFAOYSA-N']
2phbenzimidazole_neut->an,11.91,2-phenylbenzimidazole,doi.org/10.1021/jo01066a039,['[H]c1c([H])c([H])c(-c2nc3c([H])c([H])c([H])c([H])c3n2[H])c([H])c1[H]'],['[#6]12:[#6](:[#6](:[#6](:[#6](:[#6]:1-[H])-[H])-[H])-[H]):[#7]:[#6](:[#7]:2-[H])-[#6]1:[#6](:[#6](:[#6](:[#6](:[#6]:1-[H])-[H])-[H])-[H])-[H]'],"['InChI=1S/C13H10N2/c1-2-6-10(7-3-1)13-14-11-8-4-5-9-12(11)15-13/h1-9H,(H,14,15)']",['DWYHDSLIWMUSOO-UHFFFAOYSA-N']
2phenylimidazole_cation->neut,6.43,2-phenylimidazole,10.1002/jcc.23068,['[H]c1nc(-c2c([H])c([H])c([H])c([H])c2[H])n([H])c1[H]'],['[#6]1(:[#7](:[#6](:[#6](-[H]):[#7]:1)-[H])-[H])-[#6]1:[#6](:[#6](:[#6](:[#6](:[#6]:1-[H])-[H])-[H])-[H])-[H]'],"['InChI=1S/C9H8N2/c1-2-4-8(5-3-1)9-10-6-7-11-9/h1-7H,(H,10,11)']",['ZCUJYXPAKHMBAZ-UHFFFAOYSA-N']