compn,pKa,correct name,reference,smiles,smarts,inchi,inchiKey
145triazanaphtalene_cation->neut,1.2,"1,4,5-triazanaphthalene",doi.org/10.1039/JR9560001294,['[H]c1nc2nc([H])c([H])c([H])c2nc1[H]'],['[#7]1:[#6]2:[#6](:[#7]:[#6](:[#6](:[#6]:2-[H])-[H])-[H]):[#7]:[#6](:[#6]:1-[H])-[H]'],['InChI=1S/C7H5N3/c1-2-6-7(9-3-1)10-5-4-8-6/h1-5H'],['YEYHFKBVNARCNE-UHFFFAOYSA-N']
146triazanaphtalene_cation->neut,2.47,"1,4,6-triazanaphthalene",pubs.rsc.org/en/content/articlepdf/1966/j2/j29660000436,['[H]c1nc2c([H])nc([H])c([H])c2nc1[H]'],['[#7]1:[#6](:[#6](:[#7]:[#6]2:[#6]:1:[#6](:[#7]:[#6](:[#6]:2-[H])-[H])-[H])-[H])-[H]'],['InChI=1S/C7H5N3/c1-2-8-5-7-6(1)9-3-4-10-7/h1-5H'],['TYLGVQVJCVFREB-UHFFFAOYSA-N']
1methoxyphtalazine_cation->neut,3.7,1-methoxyphthalazine,doi.org/10.1039/JR9480002240,['[H]c1c([H])c([H])c2c(OC([H])([H])[H])nnc([H])c2c1[H]'],['[#8](-[#6]1:[#7]:[#7]:[#6](:[#6]2:[#6]:1:[#6](:[#6](:[#6](:[#6]:2-[H])-[H])-[H])-[H])-[H])-[#6@](-[H])(-[H])-[H]'],"['InChI=1S/C9H8N2O/c1-12-9-8-5-3-2-4-7(8)6-10-11-9/h2-6H,1H3']",['GESPRUVYTLDFDD-UHFFFAOYSA-N']
3aminoacridine_cation->neut,8,3-aminoacridine,profiles of drug substances excipiends and related (U),['[H]c1c([H])c([H])c2c([H])c3c([H])c([H])c(N([H])[H])c([H])c3nc2c1[H]'],['[#7]1:[#6]2:[#6](:[#6](:[#6]3:[#6]:1:[#6](:[#6](:[#6](:[#6]:3-[H])-[H])-[H])-[H])-[H]):[#6](:[#6](:[#6](-[#7](-[H])-[H]):[#6]:2-[H])-[H])-[H]'],"['InChI=1S/C13H10N2/c14-11-6-5-10-7-9-3-1-2-4-12(9)15-13(10)8-11/h1-8H,14H2']",['GHCKERHPOQWERJ-UHFFFAOYSA-N']
4aminoacridine_cation->neut,4.2,4-aminoacridine,10.1002/9780470186596,['[H]c1c([H])c([H])c2c([H])c3c([H])c([H])c([H])c(N([H])[H])c3nc2c1[H]'],['[#7]1:[#6]2:[#6](:[#6](:[#6]3:[#6]:1:[#6](:[#6](:[#6](:[#6]:3-[H])-[H])-[H])-[H])-[H]):[#6](:[#6](:[#6](:[#6]:2-[#7](-[H])-[H])-[H])-[H])-[H]'],"['InChI=1S/C13H10N2/c14-11-6-3-5-10-8-9-4-1-2-7-12(9)15-13(10)11/h1-8H,14H2']",['QWAGALBSTFENEE-UHFFFAOYSA-N']
78benzquinoline_cation->neut,4.25,"7,8-benzoquinoline",doi.org/10.1039/JR9480002240,['[H]c1nc2c(c([H])c1[H])c([H])c([H])c1c([H])c([H])c([H])c([H])c12'],['[#7]1:[#6]2:[#6]3:[#6](:[#6](:[#6](:[#6]:2:[#6](:[#6](:[#6]:1-[H])-[H])-[H])-[H])-[H]):[#6](:[#6](:[#6](:[#6]:3-[H])-[H])-[H])-[H]'],['InChI=1S/C13H9N/c1-2-6-12-10(4-1)7-8-11-5-3-9-14-13(11)12/h1-9H'],['WZJYKHNJTSNBHV-UHFFFAOYSA-N']
56benzquinoline_cation->neut,5.15,"5,6-benzoquinoline",doi.org/10.1039/JR9480002240,['[H]c1nc2c([H])c([H])c3c([H])c([H])c([H])c([H])c3c2c([H])c1[H]'],['[#6]12:[#6]3:[#6](:[#6](:[#6](:[#6]:1:[#7]:[#6](:[#6](:[#6]:2-[H])-[H])-[H])-[H])-[H]):[#6](:[#6](:[#6](-[H]):[#6]:3-[H])-[H])-[H]'],['InChI=1S/C13H9N/c1-2-5-11-10(4-1)7-8-13-12(11)6-3-9-14-13/h1-9H'],['HCAUQPZEWLULFJ-UHFFFAOYSA-N']
4pamino56benzquinoline_cation->neut,5.2,"4-amino-5,6-benzoquinoline",doi.org/10.1039/JR9480002240,['[H]c1nc2c([H])c([H])c3c(N([H])[H])c([H])c([H])c([H])c3c2c([H])c1[H]'],['[#6]1(:[#6](:[#6]2:[#6](:[#6](:[#6]:1-[H])-[H]):[#6]1:[#6](:[#6](:[#6]:2-[H])-[H]):[#7]:[#6](:[#6](:[#6]:1-[H])-[H])-[H])-[#7](-[H])-[H])-[H]'],"['InChI=1S/C13H10N2/c14-12-5-1-3-9-10(12)6-7-13-11(9)4-2-8-15-13/h1-8H,14H2']",['KQUCUUMTUKZYAI-UHFFFAOYSA-N']
67benzquinoline_cation->neut,5.05,"6,7-benzoquinoline",doi.org/10.1039/JR9480002240,['[H]c1nc2c([H])c3c([H])c([H])c([H])c([H])c3c([H])c2c([H])c1[H]'],['[#6]1(:[#6](:[#6]2:[#6](:[#6](:[#6]:1-[H])-[H]):[#6](:[#6]1:[#6](:[#6]:2-[H]):[#7]:[#6](:[#6](:[#6]:1-[H])-[H])-[H])-[H])-[H])-[H]'],['InChI=1S/C13H9N/c1-2-5-11-9-13-12(6-3-7-14-13)8-10(11)4-1/h1-9H'],['RFQDDXWZZVRLKO-UHFFFAOYSA-N']
3amino67benzquinoline_cation->neut,4.78,"3-amino-6,7-benzoquinoline",doi.org/10.1039/JR9480002240,['[H]c1nc2c([H])c3c([H])c([H])c([H])c([H])c3c([H])c2c([H])c1N([H])[H]'],['[#6]1(:[#6](:[#6]2:[#6](:[#6](:[#6]:1-[H])-[H]):[#6](:[#6]1:[#6](:[#6]:2-[H]):[#7]:[#6](:[#6](:[#6]:1-[H])-[#7](-[H])-[H])-[H])-[H])-[H])-[H]'],"['InChI=1S/C13H10N2/c14-12-6-11-5-9-3-1-2-4-10(9)7-13(11)15-8-12/h1-8H,14H2']",['GMIFQTVYDNZJLL-UHFFFAOYSA-N']
34benzacridine_cation->neut,4.7,Benz[a]acridine,doi.org/10.1039/JR9480002240,['[H]c1c([H])c([H])c2c([H])c3c(nc2c1[H])c([H])c([H])c1c([H])c([H])c([H])c([H])c13'],['[#6]12:[#6](:[#6](:[#6](:[#6]3:[#6]:1:[#6](:[#6](:[#6](:[#6]:3-[H])-[H])-[H])-[H])-[H])-[H]):[#7]:[#6]1:[#6](:[#6]:2-[H]):[#6](:[#6](:[#6](:[#6]:1-[H])-[H])-[H])-[H]'],['InChI=1S/C17H11N/c1-3-7-14-12(5-1)9-10-17-15(14)11-13-6-2-4-8-16(13)18-17/h1-11H'],['JEGZRTMZYUDVBF-UHFFFAOYSA-N']
8amino12benzacridine_cation->neut,6.72,benzo[c]acridin-10-amine,doi.org/10.1039/JR9480002240,['[H]c1c(N([H])[H])c([H])c2nc3c(c([H])c([H])c4c([H])c([H])c([H])c([H])c43)c([H])c2c1[H]'],['[#6]12:[#6](:[#6](:[#6]3:[#6](:[#6](:[#6](:[#6](:[#6]:3-[H])-[H])-[#7](-[H])-[H])-[H]):[#7]:1)-[H]):[#6](:[#6](:[#6]1:[#6]:2:[#6](:[#6](:[#6](:[#6]:1-[H])-[H])-[H])-[H])-[H])-[H]'],"['InChI=1S/C17H12N2/c18-14-8-7-12-9-13-6-5-11-3-1-2-4-15(11)17(13)19-16(12)10-14/h1-10H,18H2']",['UKBHGLPFJLCZIL-UHFFFAOYSA-N']
135triazaindene_cation->neut,6.1,"3,5-diazaindole",doi.org/10.1039/J29660000285,['[H]c1nc([H])c2nc([H])n([H])c2c1[H]'],['[#7]1(:[#6]2:[#6](:[#7]:[#6]:1-[H]):[#6](-[H]):[#7]:[#6](:[#6]:2-[H])-[H])-[H]'],"['InChI=1S/C6H5N3/c1-2-7-3-6-5(1)8-4-9-6/h1-4H,(H,8,9)']",['UBOOKRVGOBKDMM-UHFFFAOYSA-N']
135triazaindene_neut->an,10.88,"3,5-diazaindole",doi.org/10.1039/J29660000285,['[H]c1nc([H])c2nc([H])n([H])c2c1[H]'],['[#7]1(:[#6]2:[#6](:[#7]:[#6]:1-[H]):[#6](-[H]):[#7]:[#6](:[#6]:2-[H])-[H])-[H]'],"['InChI=1S/C6H5N3/c1-2-7-3-6-5(1)8-4-9-6/h1-4H,(H,8,9)']",['UBOOKRVGOBKDMM-UHFFFAOYSA-N']
2hydroxy135triazaindene_neut->an,10.12,"1,3-dihydroimidazo[4,5-c]pyridin-2-one",doi.org/10.1039/J29660000285,"['[H]Oc1nc2c([H])c([H])nc([H])c2n1[H]', '[H]c1c([H])[n+]([H])c([H])c2nc([O-])n([H])c12', '[H]c1c2nc(=O)n([H])c-2c([H])n([H])c1[H]', '[H]Oc1nc2c([H])nc([H])c([H])c2n1[H]', '[H]c1nc([H])c2c(c1[H])n([H])c(=O)n2[H]', '[H]Oc1nc2c([H])c([H])n([H])c([H])c-2n1']","['[#7]1:[#6]2:[#6](:[#7](:[#6]:1-[#8]-[H])-[H]):[#6](:[#7]:[#6](:[#6]:2-[H])-[H])-[H]', '[#7]1(:[#6]2:[#6](:[#7]:[#6]:1-[#8-]):[#6](:[#7+](:[#6](:[#6]:2-[H])-[H])-[H])-[H])-[H]', '[#7]1:[#6]2-[#6](:[#7](:[#6]:1=[#8])-[H]):[#6](:[#7](:[#6](:[#6]:2-[H])-[H])-[H])-[H]', '[#7]1(:[#6]2:[#6](:[#7]:[#6]:1-[#8]-[H]):[#6](:[#7]:[#6](:[#6]:2-[H])-[H])-[H])-[H]', '[#7]1(:[#6]2:[#6](:[#7](:[#6]:1=[#8])-[H]):[#6](:[#7]:[#6](:[#6]:2-[H])-[H])-[H])-[H]', '[#7]1:[#6]2-[#6](:[#7]:[#6]:1-[#8]-[H]):[#6](:[#7](:[#6](:[#6]:2-[H])-[H])-[H])-[H]']","['InChI=1S/C6H5N3O/c10-6-8-4-1-2-7-3-5(4)9-6/h1-3H,(H2,8,9,10)', 'InChI=1S/C6H5N3O/c10-6-8-4-1-2-7-3-5(4)9-6/h1-3,7H,(H,9,10)']","['ZJSVBILSBHWRTN-UHFFFAOYSA-N', 'QLYDVJVRUGPVAW-UHFFFAOYSA-N']"
2hydroxy135triazaindene_cation->neut,6.12,"1,3-dihydroimidazo[4,5-c]pyridin-2-one",doi.org/10.1039/J29660000285,"['[H]Oc1nc2c([H])c([H])nc([H])c2n1[H]', '[H]c1c([H])[n+]([H])c([H])c2nc([O-])n([H])c12', '[H]c1c2nc(=O)n([H])c-2c([H])n([H])c1[H]', '[H]Oc1nc2c([H])nc([H])c([H])c2n1[H]', '[H]c1nc([H])c2c(c1[H])n([H])c(=O)n2[H]', '[H]Oc1nc2c([H])c([H])n([H])c([H])c-2n1']","['[#7]1:[#6]2:[#6](:[#7](:[#6]:1-[#8]-[H])-[H]):[#6](:[#7]:[#6](:[#6]:2-[H])-[H])-[H]', '[#7]1(:[#6]2:[#6](:[#7]:[#6]:1-[#8-]):[#6](:[#7+](:[#6](:[#6]:2-[H])-[H])-[H])-[H])-[H]', '[#7]1:[#6]2-[#6](:[#7](:[#6]:1=[#8])-[H]):[#6](:[#7](:[#6](:[#6]:2-[H])-[H])-[H])-[H]', '[#7]1(:[#6]2:[#6](:[#7]:[#6]:1-[#8]-[H]):[#6](:[#7]:[#6](:[#6]:2-[H])-[H])-[H])-[H]', '[#7]1(:[#6]2:[#6](:[#7](:[#6]:1=[#8])-[H]):[#6](:[#7]:[#6](:[#6]:2-[H])-[H])-[H])-[H]', '[#7]1:[#6]2-[#6](:[#7]:[#6]:1-[#8]-[H]):[#6](:[#7](:[#6](:[#6]:2-[H])-[H])-[H])-[H]']","['InChI=1S/C6H5N3O/c10-6-8-4-1-2-7-3-5(4)9-6/h1-3H,(H2,8,9,10)', 'InChI=1S/C6H5N3O/c10-6-8-4-1-2-7-3-5(4)9-6/h1-3,7H,(H,9,10)']","['ZJSVBILSBHWRTN-UHFFFAOYSA-N', 'QLYDVJVRUGPVAW-UHFFFAOYSA-N']"
2mercapto135triazaindene_cation->neut,4.93,"2-mercapto-1h-imidazo[4,5-c]pyridine",doi.org/10.1039/J29660000285,"['[H]c1c([H])n([H])c([H])c2[n-]c(=S)[n+]([H])c1-2', '[H]Sc1nc2c([H])nc([H])c([H])c2n1[H]', '[H]Sc1nc2c([H])c([H])nc([H])c2n1[H]', '[H]c1c2nc(=S)n([H])c-2c([H])n([H])c1[H]', '[H]Sc1nc2c([H])c([H])n([H])c([H])c-2n1', '[H]c1nc([H])c2c(c1[H])n([H])c(=S)n2[H]']","['[#7]1(:[#6]2-[#6](:[#7-]:[#6]:1=[#16]):[#6](:[#7](:[#6](:[#6]:2-[H])-[H])-[H])-[H])-[H]', '[#7]1(:[#6]2:[#6](:[#7]:[#6]:1-[#16]-[H]):[#6](:[#7]:[#6](:[#6]:2-[H])-[H])-[H])-[H]', '[#7]1:[#6]2:[#6](:[#7](:[#6]:1-[#16]-[H])-[H]):[#6](:[#7]:[#6](:[#6]:2-[H])-[H])-[H]', '[#7]1:[#6]2-[#6](:[#7](:[#6]:1=[#16])-[H]):[#6](:[#7](:[#6](:[#6]:2-[H])-[H])-[H])-[H]', '[#7]1:[#6]2-[#6](:[#7]:[#6]:1-[#16]-[H]):[#6](:[#7](:[#6](:[#6]:2-[H])-[H])-[H])-[H]', '[#7]1(:[#6]2:[#6](:[#7](:[#6]:1=[#16])-[H]):[#6](:[#7]:[#6](:[#6]:2-[H])-[H])-[H])-[H]']","['InChI=1S/C6H5N3S/c10-6-8-4-1-2-7-3-5(4)9-6/h1-3H,(H2,7,8,9,10)', 'InChI=1S/C6H5N3S/c10-6-8-4-1-2-7-3-5(4)9-6/h1-3H,(H2,8,9,10)', 'InChI=1S/C6H5N3S/c10-6-8-4-1-2-7-3-5(4)9-6/h1-3,7H,(H,9,10)']","['IMMFMOMSUVHQLO-UHFFFAOYSA-N', 'SCARFFIFMQUARC-UHFFFAOYSA-N', 'BDGXPIFEJVNYQL-UHFFFAOYSA-N']"
2mercapto135triazaindene_neut->an,8.63,"2-mercapto-1h-imidazo[4,5-c]pyridine",doi.org/10.1039/J29660000285,"['[H]c1c([H])n([H])c([H])c2[n-]c(=S)[n+]([H])c1-2', '[H]Sc1nc2c([H])nc([H])c([H])c2n1[H]', '[H]Sc1nc2c([H])c([H])nc([H])c2n1[H]', '[H]c1c2nc(=S)n([H])c-2c([H])n([H])c1[H]', '[H]Sc1nc2c([H])c([H])n([H])c([H])c-2n1', '[H]c1nc([H])c2c(c1[H])n([H])c(=S)n2[H]']","['[#7]1(:[#6]2-[#6](:[#7-]:[#6]:1=[#16]):[#6](:[#7](:[#6](:[#6]:2-[H])-[H])-[H])-[H])-[H]', '[#7]1(:[#6]2:[#6](:[#7]:[#6]:1-[#16]-[H]):[#6](:[#7]:[#6](:[#6]:2-[H])-[H])-[H])-[H]', '[#7]1:[#6]2:[#6](:[#7](:[#6]:1-[#16]-[H])-[H]):[#6](:[#7]:[#6](:[#6]:2-[H])-[H])-[H]', '[#7]1:[#6]2-[#6](:[#7](:[#6]:1=[#16])-[H]):[#6](:[#7](:[#6](:[#6]:2-[H])-[H])-[H])-[H]', '[#7]1:[#6]2-[#6](:[#7]:[#6]:1-[#16]-[H]):[#6](:[#7](:[#6](:[#6]:2-[H])-[H])-[H])-[H]', '[#7]1(:[#6]2:[#6](:[#7](:[#6]:1=[#16])-[H]):[#6](:[#7]:[#6](:[#6]:2-[H])-[H])-[H])-[H]']","['InChI=1S/C6H5N3S/c10-6-8-4-1-2-7-3-5(4)9-6/h1-3H,(H2,7,8,9,10)', 'InChI=1S/C6H5N3S/c10-6-8-4-1-2-7-3-5(4)9-6/h1-3H,(H2,8,9,10)', 'InChI=1S/C6H5N3S/c10-6-8-4-1-2-7-3-5(4)9-6/h1-3,7H,(H,9,10)']","['IMMFMOMSUVHQLO-UHFFFAOYSA-N', 'SCARFFIFMQUARC-UHFFFAOYSA-N', 'BDGXPIFEJVNYQL-UHFFFAOYSA-N']"
6chloro2hydroxy135triazaindene_cation->neut,1.77,"6-chloro-1,3-dihydroimidazo[4,5-c]pyridin-2-one",doi.org/10.1039/J29660000285,"['[H]Oc1nc2c([H])c(Cl)n([H])c([H])c-2n1', '[H]c1nc(Cl)c([H])c2c1n([H])c(=O)n2[H]', '[H]c1c2nc(=O)n([H])c-2c([H])n([H])c1Cl', '[H]Oc1nc2c([H])nc(Cl)c([H])c2n1[H]', '[H]Oc1nc2c([H])c(Cl)nc([H])c2n1[H]', '[H]c1c(Cl)[n+]([H])c([H])c2nc([O-])n([H])c12']","['[#7]1:[#6]2-[#6](:[#7]:[#6]:1-[#8]-[H]):[#6](:[#7](:[#6](:[#6]:2-[H])-[#17])-[H])-[H]', '[#7]1(:[#6]2:[#6](:[#7](:[#6]:1=[#8])-[H]):[#6](:[#7]:[#6](:[#6]:2-[H])-[#17])-[H])-[H]', '[#7]1:[#6]2-[#6](:[#7](:[#6]:1=[#8])-[H]):[#6](:[#7](:[#6](:[#6]:2-[H])-[#17])-[H])-[H]', '[#7]1(:[#6]2:[#6](:[#7]:[#6]:1-[#8]-[H]):[#6](:[#7]:[#6](:[#6]:2-[H])-[#17])-[H])-[H]', '[#7]1:[#6]2:[#6](:[#7](:[#6]:1-[#8]-[H])-[H]):[#6](:[#7]:[#6](:[#6]:2-[H])-[#17])-[H]', '[#7]1(:[#6]2:[#6](:[#7]:[#6]:1-[#8-]):[#6](:[#7+](:[#6](:[#6]:2-[H])-[#17])-[H])-[H])-[H]']","['InChI=1S/C6H4ClN3O/c7-5-1-3-4(2-8-5)10-6(11)9-3/h1-2,8H,(H,10,11)', 'InChI=1S/C6H4ClN3O/c7-5-1-3-4(2-8-5)10-6(11)9-3/h1-2H,(H2,9,10,11)']","['WSWNOAOJJXDOOZ-UHFFFAOYSA-N', 'IYWFFILFKLFVPF-UHFFFAOYSA-N']"
6chloro2hydroxy135triazaindene_neut->an,9.48,"6-chloro-1,3-dihydroimidazo[4,5-c]pyridin-2-one",doi.org/10.1039/J29660000285,"['[H]Oc1nc2c([H])c(Cl)n([H])c([H])c-2n1', '[H]c1nc(Cl)c([H])c2c1n([H])c(=O)n2[H]', '[H]c1c2nc(=O)n([H])c-2c([H])n([H])c1Cl', '[H]Oc1nc2c([H])nc(Cl)c([H])c2n1[H]', '[H]Oc1nc2c([H])c(Cl)nc([H])c2n1[H]', '[H]c1c(Cl)[n+]([H])c([H])c2nc([O-])n([H])c12']","['[#7]1:[#6]2-[#6](:[#7]:[#6]:1-[#8]-[H]):[#6](:[#7](:[#6](:[#6]:2-[H])-[#17])-[H])-[H]', '[#7]1(:[#6]2:[#6](:[#7](:[#6]:1=[#8])-[H]):[#6](:[#7]:[#6](:[#6]:2-[H])-[#17])-[H])-[H]', '[#7]1:[#6]2-[#6](:[#7](:[#6]:1=[#8])-[H]):[#6](:[#7](:[#6](:[#6]:2-[H])-[#17])-[H])-[H]', '[#7]1(:[#6]2:[#6](:[#7]:[#6]:1-[#8]-[H]):[#6](:[#7]:[#6](:[#6]:2-[H])-[#17])-[H])-[H]', '[#7]1:[#6]2:[#6](:[#7](:[#6]:1-[#8]-[H])-[H]):[#6](:[#7]:[#6](:[#6]:2-[H])-[#17])-[H]', '[#7]1(:[#6]2:[#6](:[#7]:[#6]:1-[#8-]):[#6](:[#7+](:[#6](:[#6]:2-[H])-[#17])-[H])-[H])-[H]']","['InChI=1S/C6H4ClN3O/c7-5-1-3-4(2-8-5)10-6(11)9-3/h1-2,8H,(H,10,11)', 'InChI=1S/C6H4ClN3O/c7-5-1-3-4(2-8-5)10-6(11)9-3/h1-2H,(H2,9,10,11)']","['WSWNOAOJJXDOOZ-UHFFFAOYSA-N', 'IYWFFILFKLFVPF-UHFFFAOYSA-N']"
6chloro2hydroxy135triazaindene_an->2an,14.36,"6-chloro-1,3-dihydroimidazo[4,5-c]pyridin-2-one",doi.org/10.1039/J29660000285,"['[H]Oc1nc2c([H])c(Cl)n([H])c([H])c-2n1', '[H]c1nc(Cl)c([H])c2c1n([H])c(=O)n2[H]', '[H]c1c2nc(=O)n([H])c-2c([H])n([H])c1Cl', '[H]Oc1nc2c([H])nc(Cl)c([H])c2n1[H]', '[H]Oc1nc2c([H])c(Cl)nc([H])c2n1[H]', '[H]c1c(Cl)[n+]([H])c([H])c2nc([O-])n([H])c12']","['[#7]1:[#6]2-[#6](:[#7]:[#6]:1-[#8]-[H]):[#6](:[#7](:[#6](:[#6]:2-[H])-[#17])-[H])-[H]', '[#7]1(:[#6]2:[#6](:[#7](:[#6]:1=[#8])-[H]):[#6](:[#7]:[#6](:[#6]:2-[H])-[#17])-[H])-[H]', '[#7]1:[#6]2-[#6](:[#7](:[#6]:1=[#8])-[H]):[#6](:[#7](:[#6](:[#6]:2-[H])-[#17])-[H])-[H]', '[#7]1(:[#6]2:[#6](:[#7]:[#6]:1-[#8]-[H]):[#6](:[#7]:[#6](:[#6]:2-[H])-[#17])-[H])-[H]', '[#7]1:[#6]2:[#6](:[#7](:[#6]:1-[#8]-[H])-[H]):[#6](:[#7]:[#6](:[#6]:2-[H])-[#17])-[H]', '[#7]1(:[#6]2:[#6](:[#7]:[#6]:1-[#8-]):[#6](:[#7+](:[#6](:[#6]:2-[H])-[#17])-[H])-[H])-[H]']","['InChI=1S/C6H4ClN3O/c7-5-1-3-4(2-8-5)10-6(11)9-3/h1-2,8H,(H,10,11)', 'InChI=1S/C6H4ClN3O/c7-5-1-3-4(2-8-5)10-6(11)9-3/h1-2H,(H2,9,10,11)']","['WSWNOAOJJXDOOZ-UHFFFAOYSA-N', 'IYWFFILFKLFVPF-UHFFFAOYSA-N']"
6chloro135triazaindene_neut->an,10.19,"6-chloro-1h-imidazo[4,5-c]pyridine",doi.org/10.1039/J29660000285,"['[H]c1nc(Cl)c([H])c2c1nc([H])n2[H]', '[H]c1c(Cl)nc([H])c2c1nc([H])n2[H]', '[H]c1nc(Cl)c([H])[c-]2c1[n+]([H])[c-][n+]2[H]', '[H]c1nc2c([H])c(Cl)n([H])c([H])c-2n1']","['[#7]1(:[#6]2:[#6](:[#7]:[#6]:1-[H]):[#6](:[#7]:[#6](:[#6]:2-[H])-[#17])-[H])-[H]', '[#7]1:[#6]2:[#6](:[#7](:[#6]:1-[H])-[H]):[#6](:[#7]:[#6](:[#6]:2-[H])-[#17])-[H]', '[#7]1(:[#6-]2:[#6](:[#7+](:[#6-]:1)-[H]):[#6](:[#7]:[#6](:[#6]:2-[H])-[#17])-[H])-[H]', '[#7]1:[#6]2-[#6](:[#7]:[#6]:1-[H]):[#6](:[#7](:[#6](:[#6]:2-[H])-[#17])-[H])-[H]']","['InChI=1S/C6H4ClN3/c7-6-1-4-5(2-8-6)10-3-9-4/h1-3H,(H,9,10)', 'InChI=1S/C6H4ClN3/c7-6-1-4-5(2-8-6)10-3-9-4/h1-2,9-10H', 'InChI=1S/C6H4ClN3/c7-6-1-4-5(2-8-6)10-3-9-4/h1-3,8H']","['GDXABUJCXZZPBI-UHFFFAOYSA-N', 'ZRAZVVLYNKWDII-UHFFFAOYSA-N', 'HZOAYMGELKWQRO-UHFFFAOYSA-N']"
4chloro135triazaindene_neut->an,9.83,"4-chloro-1h-imidazo[4,5-c]pyridine",doi.org/10.1039/J29660000285,"['[H]c1nc(Cl)c2c(nc([H])n2[H])c1[H]', '[H]c1nc(Cl)c2[c-](c1[H])[n+]([H])[c-][n+]2[H]', '[H]c1nc2c([H])c([H])n([H])c(Cl)c-2n1', '[H]c1nc(Cl)c2nc([H])n([H])c2c1[H]']","['[#7]1:[#6]2:[#6](:[#7](:[#6]:1-[H])-[H]):[#6](:[#7]:[#6](:[#6]:2-[H])-[H])-[#17]', '[#7]1(:[#6-]2:[#6](:[#7+](:[#6-]:1)-[H]):[#6](:[#7]:[#6](:[#6]:2-[H])-[H])-[#17])-[H]', '[#7]1:[#6]2-[#6](:[#7]:[#6]:1-[H]):[#6](:[#7](:[#6](:[#6]:2-[H])-[H])-[H])-[#17]', '[#7]1(:[#6]2:[#6](:[#7]:[#6]:1-[H]):[#6](:[#7]:[#6](:[#6]:2-[H])-[H])-[#17])-[H]']","['InChI=1S/C6H4ClN3/c7-6-5-4(1-2-8-6)9-3-10-5/h1-3H,(H,9,10)', 'InChI=1S/C6H4ClN3/c7-6-5-4(1-2-8-6)9-3-10-5/h1-2,9-10H', 'InChI=1S/C6H4ClN3/c7-6-5-4(1-2-8-6)9-3-10-5/h1-3,8H']","['DHJMLXBBZRWBPW-UHFFFAOYSA-N', 'XNRWHXLOUPMXAM-UHFFFAOYSA-N', 'OBOSHLXHEOYIBU-UHFFFAOYSA-N']"
6chloro2mercapto135triazaindene_cation->neut,0.81,"6-chloro-1h-imidazo[4,5-c]pyridine-2(3h)-thione",doi.org/10.1039/J29660000285,"['[H]Sc1nc2c([H])c(Cl)nc([H])c2n1[H]', '[H]Sc1nc2c([H])nc(Cl)c([H])c2n1[H]', '[H]c1c2nc(=S)n([H])c-2c([H])n([H])c1Cl', '[H]c1c(Cl)n([H])c([H])c2[n-]c(=S)[n+]([H])c1-2', '[H]c1nc(Cl)c([H])c2c1n([H])c(=S)n2[H]', '[H]Sc1nc2c([H])c(Cl)n([H])c([H])c-2n1']","['[#7]1:[#6]2:[#6](:[#7](:[#6]:1-[#16]-[H])-[H]):[#6](:[#7]:[#6](:[#6]:2-[H])-[#17])-[H]', '[#7]1(:[#6]2:[#6](:[#7]:[#6]:1-[#16]-[H]):[#6](:[#7]:[#6](:[#6]:2-[H])-[#17])-[H])-[H]', '[#7]1:[#6]2-[#6](:[#7](:[#6]:1=[#16])-[H]):[#6](:[#7](:[#6](:[#6]:2-[H])-[#17])-[H])-[H]', '[#7]1(:[#6]2-[#6](:[#7-]:[#6]:1=[#16]):[#6](:[#7](:[#6](:[#6]:2-[H])-[#17])-[H])-[H])-[H]', '[#7]1(:[#6]2:[#6](:[#7](:[#6]:1=[#16])-[H]):[#6](:[#7]:[#6](:[#6]:2-[H])-[#17])-[H])-[H]', '[#7]1:[#6]2-[#6](:[#7]:[#6]:1-[#16]-[H]):[#6](:[#7](:[#6](:[#6]:2-[H])-[#17])-[H])-[H]']","['InChI=1S/C6H4ClN3S/c7-5-1-3-4(2-8-5)10-6(11)9-3/h1-2H,(H2,9,10,11)', 'InChI=1S/C6H4ClN3S/c7-5-1-3-4(2-8-5)10-6(11)9-3/h1-2,8H,(H,10,11)', 'InChI=1S/C6H4ClN3S/c7-5-1-3-4(2-8-5)10-6(11)9-3/h1-2H,(H2,8,9,10,11)']","['PCAIHEUQIRUEOF-UHFFFAOYSA-N', 'WVVSQFZAWLMRKM-UHFFFAOYSA-N', 'NIOZTNNCCMIVEB-UHFFFAOYSA-N']"
6chloro2mercapto135triazaindene_neut->an,7.76,"6-chloro-1h-imidazo[4,5-c]pyridine-2(3h)-thione",doi.org/10.1039/J29660000285,"['[H]Sc1nc2c([H])c(Cl)nc([H])c2n1[H]', '[H]Sc1nc2c([H])nc(Cl)c([H])c2n1[H]', '[H]c1c2nc(=S)n([H])c-2c([H])n([H])c1Cl', '[H]c1c(Cl)n([H])c([H])c2[n-]c(=S)[n+]([H])c1-2', '[H]c1nc(Cl)c([H])c2c1n([H])c(=S)n2[H]', '[H]Sc1nc2c([H])c(Cl)n([H])c([H])c-2n1']","['[#7]1:[#6]2:[#6](:[#7](:[#6]:1-[#16]-[H])-[H]):[#6](:[#7]:[#6](:[#6]:2-[H])-[#17])-[H]', '[#7]1(:[#6]2:[#6](:[#7]:[#6]:1-[#16]-[H]):[#6](:[#7]:[#6](:[#6]:2-[H])-[#17])-[H])-[H]', '[#7]1:[#6]2-[#6](:[#7](:[#6]:1=[#16])-[H]):[#6](:[#7](:[#6](:[#6]:2-[H])-[#17])-[H])-[H]', '[#7]1(:[#6]2-[#6](:[#7-]:[#6]:1=[#16]):[#6](:[#7](:[#6](:[#6]:2-[H])-[#17])-[H])-[H])-[H]', '[#7]1(:[#6]2:[#6](:[#7](:[#6]:1=[#16])-[H]):[#6](:[#7]:[#6](:[#6]:2-[H])-[#17])-[H])-[H]', '[#7]1:[#6]2-[#6](:[#7]:[#6]:1-[#16]-[H]):[#6](:[#7](:[#6](:[#6]:2-[H])-[#17])-[H])-[H]']","['InChI=1S/C6H4ClN3S/c7-5-1-3-4(2-8-5)10-6(11)9-3/h1-2H,(H2,9,10,11)', 'InChI=1S/C6H4ClN3S/c7-5-1-3-4(2-8-5)10-6(11)9-3/h1-2,8H,(H,10,11)', 'InChI=1S/C6H4ClN3S/c7-5-1-3-4(2-8-5)10-6(11)9-3/h1-2H,(H2,8,9,10,11)']","['PCAIHEUQIRUEOF-UHFFFAOYSA-N', 'WVVSQFZAWLMRKM-UHFFFAOYSA-N', 'NIOZTNNCCMIVEB-UHFFFAOYSA-N']"
6chloro2mercapto135triazaindene_an->2an,13.4,"6-chloro-1h-imidazo[4,5-c]pyridine-2(3h)-thione",doi.org/10.1039/J29660000285,"['[H]Sc1nc2c([H])c(Cl)nc([H])c2n1[H]', '[H]Sc1nc2c([H])nc(Cl)c([H])c2n1[H]', '[H]c1c2nc(=S)n([H])c-2c([H])n([H])c1Cl', '[H]c1c(Cl)n([H])c([H])c2[n-]c(=S)[n+]([H])c1-2', '[H]c1nc(Cl)c([H])c2c1n([H])c(=S)n2[H]', '[H]Sc1nc2c([H])c(Cl)n([H])c([H])c-2n1']","['[#7]1:[#6]2:[#6](:[#7](:[#6]:1-[#16]-[H])-[H]):[#6](:[#7]:[#6](:[#6]:2-[H])-[#17])-[H]', '[#7]1(:[#6]2:[#6](:[#7]:[#6]:1-[#16]-[H]):[#6](:[#7]:[#6](:[#6]:2-[H])-[#17])-[H])-[H]', '[#7]1:[#6]2-[#6](:[#7](:[#6]:1=[#16])-[H]):[#6](:[#7](:[#6](:[#6]:2-[H])-[#17])-[H])-[H]', '[#7]1(:[#6]2-[#6](:[#7-]:[#6]:1=[#16]):[#6](:[#7](:[#6](:[#6]:2-[H])-[#17])-[H])-[H])-[H]', '[#7]1(:[#6]2:[#6](:[#7](:[#6]:1=[#16])-[H]):[#6](:[#7]:[#6](:[#6]:2-[H])-[#17])-[H])-[H]', '[#7]1:[#6]2-[#6](:[#7]:[#6]:1-[#16]-[H]):[#6](:[#7](:[#6](:[#6]:2-[H])-[#17])-[H])-[H]']","['InChI=1S/C6H4ClN3S/c7-5-1-3-4(2-8-5)10-6(11)9-3/h1-2H,(H2,9,10,11)', 'InChI=1S/C6H4ClN3S/c7-5-1-3-4(2-8-5)10-6(11)9-3/h1-2,8H,(H,10,11)', 'InChI=1S/C6H4ClN3S/c7-5-1-3-4(2-8-5)10-6(11)9-3/h1-2H,(H2,8,9,10,11)']","['PCAIHEUQIRUEOF-UHFFFAOYSA-N', 'WVVSQFZAWLMRKM-UHFFFAOYSA-N', 'NIOZTNNCCMIVEB-UHFFFAOYSA-N']"
26dichloro135triazaindene_cation->neut,1.35,"2,6-dichloro-3-deazapurine",doi.org/10.1039/J29660000285,"['[H]c1c2nc(Cl)nc-2c([H])n([H])c1Cl', '[H]c1c(Cl)nc([H])c2c1nc(Cl)n2[H]', '[H]c1nc(Cl)c([H])c2c1nc(Cl)n2[H]']","['[#7]1:[#6]2-[#6](:[#7]:[#6]:1-[#17]):[#6](:[#7](:[#6](:[#6]:2-[H])-[#17])-[H])-[H]', '[#7]1:[#6]2:[#6](:[#7](:[#6]:1-[#17])-[H]):[#6](:[#7]:[#6](:[#6]:2-[H])-[#17])-[H]', '[#7]1(:[#6]2:[#6](:[#7]:[#6]:1-[#17]):[#6](:[#7]:[#6](:[#6]:2-[H])-[#17])-[H])-[H]']","['InChI=1S/C6H3Cl2N3/c7-5-1-3-4(2-9-5)11-6(8)10-3/h1-2,9H', 'InChI=1S/C6H3Cl2N3/c7-5-1-3-4(2-9-5)11-6(8)10-3/h1-2H,(H,10,11)']","['JDCYSIFDYOTDRN-UHFFFAOYSA-N', 'AIGRVLNGOBWJIF-UHFFFAOYSA-N']"