compn,pKa,correct name,reference,smiles,smarts,inchi,inchiKey
3chloroazuloic_neut->an,4.95,3-chloroazuloic acid,profiles of drug substances excipiends and related (U),['[H]OC(=O)c1c([H])c(Cl)c2c([H])c([H])c([H])c([H])c([H])c1-2'],['[#8](-[#6](=[#8])-[#6]1:[#6]2-[#6](:[#6](:[#6]:1-[H])-[#17]):[#6](:[#6](:[#6](:[#6](:[#6]:2-[H])-[H])-[H])-[H])-[H])-[H]'],"['InChI=1S/C11H7ClO2/c12-10-6-9(11(13)14)7-4-2-1-3-5-8(7)10/h1-6H,(H,13,14)']",['SDAPJYGTKUIROL-UHFFFAOYSA-N']
3bromoazuloic_neut->an,4.87,3-bromoazuloic acid,profiles of drug substances excipiends and related (U),['[H]OC(=O)c1c([H])c(Br)c2c([H])c([H])c([H])c([H])c([H])c1-2'],['[#8](-[#6](=[#8])-[#6]1:[#6]2-[#6](:[#6](:[#6]:1-[H])-[#35]):[#6](:[#6](:[#6](:[#6](:[#6]:2-[H])-[H])-[H])-[H])-[H])-[H]'],"['InChI=1S/C11H7BrO2/c12-10-6-9(11(13)14)7-4-2-1-3-5-8(7)10/h1-6H,(H,13,14)']",['LHQZWQDGSCWFDU-UHFFFAOYSA-N']
3nitroazuloic_neut->an,4.32,3-nitroazuloic acid,profiles of drug substances excipiends and related (U),['[H]OC(=O)c1c([H])c([N+](=O)[O-])c2c([H])c([H])c([H])c([H])c([H])c1-2'],['[#8](-[#6](=[#8])-[#6]1:[#6]2-[#6](:[#6](:[#6]:1-[H])-[#7+](=[#8])-[#8-]):[#6](:[#6](:[#6](:[#6](:[#6]:2-[H])-[H])-[H])-[H])-[H])-[H]'],"['InChI=1S/C11H7NO4/c13-11(14)9-6-10(12(15)16)8-5-3-1-2-4-7(8)9/h1-6H,(H,13,14)']",['MTTPVZREVPQDDI-UHFFFAOYSA-N']
55dibromobarbituric_neut->an,5.68,"5,5-dibromobarbituric acid",profiles of drug substances excipiends and related (A),['[H]N1C(=O)N([H])C(=O)C(Br)(Br)C1=O'],['[#35]-[#6@]1(-[#35])-[#6](=[#8])-[#7](-[#6](=[#8])-[#7](-[#6]-1=[#8])-[H])-[H]'],"['InChI=1S/C4H2Br2N2O3/c5-4(6)1(9)7-3(11)8-2(4)10/h(H2,7,8,9,10,11)']",['AMATXUCYHHHHHB-UHFFFAOYSA-N']
55dichlorobarbituric_neut->an,5.55,"5,5-dichlorobarbituric ",profiles of drug substances excipiends and related (A),['[H]N1C(=O)N([H])C(=O)C(Cl)(Cl)C1=O'],['[#17]-[#6@@]1(-[#17])-[#6](=[#8])-[#7](-[#6](=[#8])-[#7](-[#6]-1=[#8])-[H])-[H]'],"['InChI=1S/C4H2Cl2N2O3/c5-4(6)1(9)7-3(11)8-2(4)10/h(H2,7,8,9,10,11)']",['REGZNRJTBVIGMJ-UHFFFAOYSA-N']
55dimethylbarbituric_neut->an,8.51,"5,5-dimethylbarbituric",profiles of drug substances excipiends and related (A),['[H]N1C(=O)N([H])C(=O)C(C([H])([H])[H])(C([H])([H])[H])C1=O'],['[#8]=[#6]1-[#7](-[#6](=[#8])-[#7](-[#6](=[#8])-[#6@]-1(-[#6@@](-[H])(-[H])-[H])-[#6@@](-[H])(-[H])-[H])-[H])-[H]'],"['InChI=1S/C6H8N2O3/c1-6(2)3(9)7-5(11)8-4(6)10/h1-2H3,(H2,7,8,9,10,11)']",['LAOZSCRCYVBSJA-UHFFFAOYSA-N']
phenylmethylbarbituric_neut->an,7.78,5-phenyl-5-methylbarbituric,profiles of drug substances excipiends and related (A),['[H]c1c([H])c([H])c(C2(C([H])([H])[H])C(=O)N([H])C(=O)N([H])C2=O)c([H])c1[H]'],['[#8]=[#6]1-[#7](-[#6](=[#8])-[#7](-[#6](=[#8])-[#6@@]-1(-[#6]1:[#6](:[#6](:[#6](:[#6](:[#6]:1-[H])-[H])-[H])-[H])-[H])-[#6@@](-[H])(-[H])-[H])-[H])-[H]'],"['InChI=1S/C11H10N2O3/c1-11(7-5-3-2-4-6-7)8(14)12-10(16)13-9(11)15/h2-6H,1H3,(H2,12,13,14,15,16)']",['LSAOZCAKUIANSQ-UHFFFAOYSA-N']
55diphenylbarbituric_neut->an,7.3,"5,5-diphenylbarbituric acid",doi.org/10.1039/P29800000504,['[H]c1c([H])c([H])c(C2(c3c([H])c([H])c([H])c([H])c3[H])C(=O)N([H])C(=O)N([H])C2=O)c([H])c1[H]'],['[#8]=[#6]1-[#7](-[#6](=[#8])-[#7](-[#6](=[#8])-[#6@]-1(-[#6]1:[#6](:[#6](:[#6](:[#6](:[#6]:1-[H])-[H])-[H])-[H])-[H])-[#6]1:[#6](:[#6](:[#6](:[#6](:[#6]:1-[H])-[H])-[H])-[H])-[H])-[H])-[H]'],"['InChI=1S/C16H12N2O3/c19-13-16(11-7-3-1-4-8-11,12-9-5-2-6-10-12)14(20)18-15(21)17-13/h1-10H,(H2,17,18,19,20,21)']",['IKVPZYAOGOJTLK-UHFFFAOYSA-N']
55diphenylbarbituric_an->2an,11.9,"5,5-diphenylbarbituric acid",doi.org/10.1039/P29800000504,['[H]c1c([H])c([H])c(C2(c3c([H])c([H])c([H])c([H])c3[H])C(=O)N([H])C(=O)N([H])C2=O)c([H])c1[H]'],['[#8]=[#6]1-[#7](-[#6](=[#8])-[#7](-[#6](=[#8])-[#6@]-1(-[#6]1:[#6](:[#6](:[#6](:[#6](:[#6]:1-[H])-[H])-[H])-[H])-[H])-[#6]1:[#6](:[#6](:[#6](:[#6](:[#6]:1-[H])-[H])-[H])-[H])-[H])-[H])-[H]'],"['InChI=1S/C16H12N2O3/c19-13-16(11-7-3-1-4-8-11,12-9-5-2-6-10-12)14(20)18-15(21)17-13/h1-10H,(H2,17,18,19,20,21)']",['IKVPZYAOGOJTLK-UHFFFAOYSA-N']
55cyclopropanbarbituric_neut->an,8.73,"1',5-spiro(cyclopropane) Barbituric acid",profiles of drug substances excipiends and related (A),['[H]N1C(=O)N([H])C(=O)C2(C1=O)C([H])([H])C2([H])[H]'],['[#8]=[#6]1-[#7](-[#6](=[#8])-[#7](-[#6](=[#8])-[#6@@]-12-[#6@@](-[#6@]-2(-[H])-[H])(-[H])-[H])-[H])-[H]'],"['InChI=1S/C6H6N2O3/c9-3-6(1-2-6)4(10)8-5(11)7-3/h1-2H2,(H2,7,8,9,10,11)']",['PQVZDTWRGIHYCU-UHFFFAOYSA-N']
55cyclobutanbarbituric_neut->an,8.82,"1',5-spiro(cyclobutane) Barbituric acid",profiles of drug substances excipiends and related (A),['[H]N1C(=O)N([H])C(=O)C2(C1=O)C([H])([H])C([H])([H])C2([H])[H]'],['[#8]=[#6]1-[#7](-[#6](=[#8])-[#7](-[#6](=[#8])-[#6@@]-12-[#6@@](-[H])(-[#6@](-[#6@]-2(-[H])-[H])(-[H])-[H])-[H])-[H])-[H]'],"['InChI=1S/C7H8N2O3/c10-4-7(2-1-3-7)5(11)9-6(12)8-4/h1-3H2,(H2,8,9,10,11,12)']",['VQDXQNNYGSEHPU-UHFFFAOYSA-N']
55cyclopentanbarbituric_neut->an,8.83,"1',5-spiro(cyclopentane) Barbituric acid",profiles of drug substances excipiends and related (A),['[H]N1C(=O)N([H])C(=O)C2(C1=O)C([H])([H])C([H])([H])C([H])([H])C2([H])[H]'],['[#8]=[#6]1-[#7](-[#6](=[#8])-[#7](-[#6](=[#8])-[#6@@]-12-[#6@](-[H])(-[H])-[#6@](-[#6@](-[#6@]-2(-[H])-[H])(-[H])-[H])(-[H])-[H])-[H])-[H]'],"['InChI=1S/C8H10N2O3/c11-5-8(3-1-2-4-8)6(12)10-7(13)9-5/h1-4H2,(H2,9,10,11,12,13)']",['HYPRUQJUBWRVEM-UHFFFAOYSA-N']
55cyclohexanbarbituric_neut->an,8.88,"1',5-spiro(cyclohexane) Barbituric acid",profiles of drug substances excipiends and related (A),['[H]N1C(=O)N([H])C(=O)C2(C1=O)C([H])([H])C([H])([H])C([H])([H])C([H])([H])C2([H])[H]'],['[#8]=[#6]1-[#7](-[#6](=[#8])-[#7](-[#6](=[#8])-[#6@@]-12-[#6@](-[#6@](-[#6@@](-[#6@](-[#6@]-2(-[H])-[H])(-[H])-[H])(-[H])-[H])(-[H])-[H])(-[H])-[H])-[H])-[H]'],"['InChI=1S/C9H12N2O3/c12-6-9(4-2-1-3-5-9)7(13)11-8(14)10-6/h1-5H2,(H2,10,11,12,13,14)']",['NBLIVIWUPTWDMD-UHFFFAOYSA-N']
pnitrobenzenesulfonamide_neut->an,8.63,p-nitro-benzenesulfonamide,http://cccc.uochb.cas.cz/49/5/1182/,['[H]c1c([H])c(S(=O)(=O)N([H])[H])c([H])c([H])c1[N+](=O)[O-]'],['[#8]=[#16@](=[#8])(-[#7](-[H])-[H])-[#6]1:[#6](:[#6](:[#6](:[#6](:[#6]:1-[H])-[H])-[#7+](=[#8])-[#8-])-[H])-[H]'],"['InChI=1S/C6H6N2O4S/c7-13(11,12)6-3-1-5(2-4-6)8(9)10/h1-4H,(H2,7,11,12)']",['QWKKYJLAUWFPDB-UHFFFAOYSA-N']
pchlorobenzenesulfonamide_neut->an,9.23,p-chloro-benzenesulfonamide,http://cccc.uochb.cas.cz/49/5/1182/,['[H]c1c([H])c(S(=O)(=O)N([H])[H])c([H])c([H])c1Cl'],['[#8]=[#16@](=[#8])(-[#7](-[H])-[H])-[#6]1:[#6](:[#6](:[#6](:[#6](:[#6]:1-[H])-[H])-[#17])-[H])-[H]'],"['InChI=1S/C6H6ClNO2S/c7-5-1-3-6(4-2-5)11(8,9)10/h1-4H,(H2,8,9,10)']",['HHHDJHHNEURCNV-UHFFFAOYSA-N']
benzenesulfonamide_neut->an,10,benzenesulfonamide,profiles of drug substances excipiends and related (U),['[H]c1c([H])c([H])c(S(=O)(=O)N([H])[H])c([H])c1[H]'],['[#8]=[#16@](=[#8])(-[#7](-[H])-[H])-[#6]1:[#6](:[#6](:[#6](:[#6](:[#6]:1-[H])-[H])-[H])-[H])-[H]'],"['InChI=1S/C6H7NO2S/c7-10(8,9)6-4-2-1-3-5-6/h1-5H,(H2,7,8,9)']",['KHBQMWCZKVMBLN-UHFFFAOYSA-N']
pmethylbenzenesulfonamide_neut->an,9.9,p-methyl-benzenesulfonamide,https://link.springer.com/article/10.1023/A:1020306926419,['[H]c1c([H])c(S(=O)(=O)N([H])[H])c([H])c([H])c1C([H])([H])[H]'],['[#8]=[#16@](=[#8])(-[#7](-[H])-[H])-[#6]1:[#6](:[#6](:[#6](:[#6](:[#6]:1-[H])-[H])-[#6@@](-[H])(-[H])-[H])-[H])-[H]'],"['InChI=1S/C7H9NO2S/c1-6-2-4-7(5-3-6)11(8,9)10/h2-5H,1H3,(H2,8,9,10)']",['LMYRWZFENFIFIT-UHFFFAOYSA-N']
pmethoxybenzenesulfonamide_neut->an,10.22,p-methoxy-benzenesulfonamide,profiles of drug substances excipiends and related (U),['[H]c1c([H])c(S(=O)(=O)N([H])[H])c([H])c([H])c1OC([H])([H])[H]'],['[#8]=[#16@](=[#8])(-[#7](-[H])-[H])-[#6]1:[#6](:[#6](:[#6](:[#6](:[#6]:1-[H])-[H])-[#8]-[#6@@](-[H])(-[H])-[H])-[H])-[H]'],"['InChI=1S/C7H9NO3S/c1-11-6-2-4-7(5-3-6)12(8,9)10/h2-5H,1H3,(H2,8,9,10)']",['MSFQEZBRFPAFEX-UHFFFAOYSA-N']
mnitrobenzenesulfonamide_neut->an,9.2,m-nitro-benzenesulfonamide,profiles of drug substances excipiends and related (U),['[H]c1c([H])c([N+](=O)[O-])c([H])c(S(=O)(=O)N([H])[H])c1[H]'],['[#8]=[#16@](=[#8])(-[#7](-[H])-[H])-[#6]1:[#6](:[#6](:[#6](:[#6](:[#6]:1-[H])-[H])-[H])-[#7+](=[#8])-[#8-])-[H]'],"['InChI=1S/C6H6N2O4S/c7-13(11,12)6-3-1-2-5(4-6)8(9)10/h1-4H,(H2,7,11,12)']",['TXTQURPQLVHJRE-UHFFFAOYSA-N']
nphenylbenzenesulfonamide_neut->an,8.31,n-phenyl-benzenesulfonamide,profiles of drug substances excipiends and related (U),['[H]c1c([H])c([H])c(N([H])S(=O)(=O)c2c([H])c([H])c([H])c([H])c2[H])c([H])c1[H]'],['[#8]=[#16@](=[#8])(-[#7](-[H])-[#6]1:[#6](:[#6](:[#6](:[#6](:[#6]:1-[H])-[H])-[H])-[H])-[H])-[#6]1:[#6](:[#6](:[#6](:[#6](:[#6]:1-[H])-[H])-[H])-[H])-[H]'],"['InChI=1S/C12H11NO2S/c14-16(15,12-9-5-2-6-10-12)13-11-7-3-1-4-8-11/h1-10,13H']",['XAUGWFWQVYXATQ-UHFFFAOYSA-N']
nphenylpnitrobenzenesulfonamide_neut->an,7.42,n-phenyl-p-nitro-benzenesulfonamide,profiles of drug substances excipiends and related (U),['[H]c1c([H])c([H])c(N([H])S(=O)(=O)c2c([H])c([H])c([N+](=O)[O-])c([H])c2[H])c([H])c1[H]'],['[#8]=[#16@](=[#8])(-[#7](-[H])-[#6]1:[#6](:[#6](:[#6](:[#6](:[#6]:1-[H])-[H])-[H])-[H])-[H])-[#6]1:[#6](:[#6](:[#6](:[#6](:[#6]:1-[H])-[H])-[#7+](=[#8])-[#8-])-[H])-[H]'],"['InChI=1S/C12H10N2O4S/c15-14(16)11-6-8-12(9-7-11)19(17,18)13-10-4-2-1-3-5-10/h1-9,13H']",['BJKNXDSKYOQVTJ-UHFFFAOYSA-N']
nphenylpaminobenzenesulfonamide_neut->an,8.89,n-phenyl-p-amino-benzenesulfonamide,profiles of drug substances excipiends and related (U),['[H]c1c([H])c([H])c(N([H])S(=O)(=O)c2c([H])c([H])c(N([H])[H])c([H])c2[H])c([H])c1[H]'],['[#8]=[#16@](=[#8])(-[#7](-[H])-[#6]1:[#6](:[#6](:[#6](:[#6](:[#6]:1-[H])-[H])-[H])-[H])-[H])-[#6]1:[#6](:[#6](:[#6](:[#6](:[#6]:1-[H])-[H])-[#7](-[H])-[H])-[H])-[H]'],"['InChI=1S/C12H12N2O2S/c13-10-6-8-12(9-7-10)17(15,16)14-11-4-2-1-3-5-11/h1-9,14H,13H2']",['YBUXKQSCKVQATK-UHFFFAOYSA-N']
nphenylpchlorobenzenesulfonamide_neut->an,7.98,n-phenyl-p-chloro-benzenesulfonamide,profiles of drug substances excipiends and related (U),['[H]c1c([H])c([H])c(N([H])S(=O)(=O)c2c([H])c([H])c(Cl)c([H])c2[H])c([H])c1[H]'],['[#8]=[#16@](=[#8])(-[#7](-[H])-[#6]1:[#6](:[#6](:[#6](:[#6](:[#6]:1-[H])-[H])-[H])-[H])-[H])-[#6]1:[#6](:[#6](:[#6](:[#6](:[#6]:1-[H])-[H])-[#17])-[H])-[H]'],"['InChI=1S/C12H10ClNO2S/c13-10-6-8-12(9-7-10)17(15,16)14-11-4-2-1-3-5-11/h1-9,14H']",['ISOSXVUVKUIPHF-UHFFFAOYSA-N']
nphenylpmethylbenzenesulfonamide_neut->an,8.46,n-phenyl-p-methyl-benzenesulfonamide,profiles of drug substances excipiends and related (U),['[H]c1c([H])c([H])c(N([H])S(=O)(=O)c2c([H])c([H])c(C([H])([H])[H])c([H])c2[H])c([H])c1[H]'],['[#8]=[#16@](=[#8])(-[#7](-[H])-[#6]1:[#6](:[#6](:[#6](:[#6](:[#6]:1-[H])-[H])-[H])-[H])-[H])-[#6]1:[#6](:[#6](:[#6](:[#6](:[#6]:1-[H])-[H])-[#6@@](-[H])(-[H])-[H])-[H])-[H]'],"['InChI=1S/C13H13NO2S/c1-11-7-9-13(10-8-11)17(15,16)14-12-5-3-2-4-6-12/h2-10,14H,1H3']",['VLVCWODDMDGANW-UHFFFAOYSA-N']
nphenylpmethoxybenzenesulfonamide_neut->an,8.66,n-phenyl-p-methoxy-benzenesulfonamide,profiles of drug substances excipiends and related (U),['[H]c1c([H])c([H])c(N([H])S(=O)(=O)c2c([H])c([H])c(OC([H])([H])[H])c([H])c2[H])c([H])c1[H]'],['[#8]=[#16@](=[#8])(-[#7](-[H])-[#6]1:[#6](:[#6](:[#6](:[#6](:[#6]:1-[H])-[H])-[H])-[H])-[H])-[#6]1:[#6](:[#6](:[#6](:[#6](:[#6]:1-[H])-[H])-[#8]-[#6@@](-[H])(-[H])-[H])-[H])-[H]'],"['InChI=1S/C13H13NO3S/c1-17-12-7-9-13(10-8-12)18(15,16)14-11-5-3-2-4-6-11/h2-10,14H,1H3']",['GXQBXHZUPPDPLY-UHFFFAOYSA-N']
nphenylmnitrobenzenesulfonamide_neut->an,7.5,n-phenyl-m-nitro-benzenesulfonamide,profiles of drug substances excipiends and related (U),['[H]c1c([H])c([H])c(N([H])S(=O)(=O)c2c([H])c([H])c([H])c([N+](=O)[O-])c2[H])c([H])c1[H]'],['[#8]=[#16@](=[#8])(-[#7](-[H])-[#6]1:[#6](:[#6](:[#6](:[#6](:[#6]:1-[H])-[H])-[H])-[H])-[H])-[#6]1:[#6](:[#6](:[#6](:[#6](:[#6]:1-[H])-[#7+](=[#8])-[#8-])-[H])-[H])-[H]'],"['InChI=1S/C12H10N2O4S/c15-14(16)11-7-4-8-12(9-11)19(17,18)13-10-5-2-1-3-6-10/h1-9,13H']",['OXJDTNIWMQCOQT-UHFFFAOYSA-N']
benzocaine_cation->neut,2.53,benzocaine,profiles of drug substances excipiends and related (A),['[H]c1c([H])c(N([H])[H])c([H])c([H])c1C(=O)OC([H])([H])C([H])([H])[H]'],['[#8](-[#6](=[#8])-[#6]1:[#6](:[#6](:[#6](-[#7](-[H])-[H]):[#6](:[#6]:1-[H])-[H])-[H])-[H])-[#6@@](-[#6@@](-[H])(-[H])-[H])(-[H])-[H]'],"['InChI=1S/C9H11NO2/c1-2-12-9(11)7-3-5-8(10)6-4-7/h3-6H,2,10H2,1H3']",['BLFLLBZGZJTVJG-UHFFFAOYSA-N']
lorazepam_cation->neut,1.3,lorazepam,profiles of drug substances excipiends and related (U),['[H]O[C@@]1([H])N=C(c2c([H])c([H])c([H])c([H])c2Cl)c2c([H])c(Cl)c([H])c([H])c2N([H])C1=O'],['[#17]-[#6]1:[#6](:[#6]2-[#6](=[#7]-[#6@](-[#8]-[H])(-[#6](=[#8])-[#7](-[#6]:2:[#6](:[#6]:1-[H])-[H])-[H])-[H])-[#6]1:[#6](-[#17]):[#6](:[#6](:[#6](:[#6]:1-[H])-[H])-[H])-[H])-[H]'],"['InChI=1S/C15H10Cl2N2O2/c16-8-5-6-12-10(7-8)13(19-15(21)14(20)18-12)9-3-1-2-4-11(9)17/h1-7,15,21H,(H,18,20)/t15-/m1/s1']",['DIWRORZWFLOCLC-OAHLLOKOSA-N']
medazepam_cation->neut,6.19,medazepam,https://doi.org/10.1016/0003-2670(93)85339-L,['[H]c1c([H])c([H])c(C2=NC([H])([H])C([H])([H])N(C([H])([H])[H])c3c([H])c([H])c(Cl)c([H])c32)c([H])c1[H]'],['[#17]-[#6]1:[#6](:[#6]2:[#6](-[#7](-[#6@](-[#6@@](-[#7]=[#6]-2-[#6]2:[#6](:[#6](:[#6](:[#6](:[#6]:2-[H])-[H])-[H])-[H])-[H])(-[H])-[H])(-[H])-[H])-[#6@](-[H])(-[H])-[H]):[#6](:[#6]:1-[H])-[H])-[H]'],"['InChI=1S/C16H15ClN2/c1-19-10-9-18-16(12-5-3-2-4-6-12)14-11-13(17)7-8-15(14)19/h2-8,11H,9-10H2,1H3']",['YLCXGBZIZBEVPZ-UHFFFAOYSA-N']
nitrazepam_cation->neut,3.2,nitrazepam,https://doi.org/10.1016/0039-9140(91)80081-A,['[H]c1c([H])c([H])c(C2=NC([H])([H])C(=O)N([H])c3c([H])c([H])c([N+](=O)[O-])c([H])c32)c([H])c1[H]'],['[#8]=[#6]1-[#7](-[#6]2:[#6](-[#6](=[#7]-[#6@]-1(-[H])-[H])-[#6]1:[#6](:[#6](:[#6](:[#6](:[#6]:1-[H])-[H])-[H])-[H])-[H]):[#6](:[#6](-[#7+](=[#8])-[#8-]):[#6](:[#6]:2-[H])-[H])-[H])-[H]'],"['InChI=1S/C15H11N3O3/c19-14-9-16-15(10-4-2-1-3-5-10)12-8-11(18(20)21)6-7-13(12)17-14/h1-8H,9H2,(H,17,19)']",['KJONHKAYOJNZEC-UHFFFAOYSA-N']
nitrazepam_neut->an,10.39,nitrazepam,https://doi.org/10.1177/106002807801200906,['[H]c1c([H])c([H])c(C2=NC([H])([H])C(=O)N([H])c3c([H])c([H])c([N+](=O)[O-])c([H])c32)c([H])c1[H]'],['[#8]=[#6]1-[#7](-[#6]2:[#6](-[#6](=[#7]-[#6@]-1(-[H])-[H])-[#6]1:[#6](:[#6](:[#6](:[#6](:[#6]:1-[H])-[H])-[H])-[H])-[H]):[#6](:[#6](-[#7+](=[#8])-[#8-]):[#6](:[#6]:2-[H])-[H])-[H])-[H]'],"['InChI=1S/C15H11N3O3/c19-14-9-16-15(10-4-2-1-3-5-10)12-8-11(18(20)21)6-7-13(12)17-14/h1-8H,9H2,(H,17,19)']",['KJONHKAYOJNZEC-UHFFFAOYSA-N']
oxazepam_cation->neut,1.8,oxazepam,https://doi.org/10.1177/106002807801200906,['[H]O[C@@]1([H])N=C(c2c([H])c([H])c([H])c([H])c2[H])c2c([H])c(Cl)c([H])c([H])c2N([H])C1=O'],['[#17]-[#6]1:[#6](:[#6]2-[#6](=[#7]-[#6@](-[#8]-[H])(-[#6](=[#8])-[#7](-[#6]:2:[#6](:[#6]:1-[H])-[H])-[H])-[H])-[#6]1:[#6](:[#6](:[#6](:[#6](:[#6]:1-[H])-[H])-[H])-[H])-[H])-[H]'],"['InChI=1S/C15H11ClN2O2/c16-10-6-7-12-11(8-10)13(9-4-2-1-3-5-9)18-15(20)14(19)17-12/h1-8,15,20H,(H,17,19)/t15-/m1/s1']",['ADIMAYPTOBDMTL-OAHLLOKOSA-N']
oxazepam_neut->an,11.1,oxazepam,https://doi.org/10.1177/106002807801200906,['[H]O[C@@]1([H])N=C(c2c([H])c([H])c([H])c([H])c2[H])c2c([H])c(Cl)c([H])c([H])c2N([H])C1=O'],['[#17]-[#6]1:[#6](:[#6]2-[#6](=[#7]-[#6@](-[#8]-[H])(-[#6](=[#8])-[#7](-[#6]:2:[#6](:[#6]:1-[H])-[H])-[H])-[H])-[#6]1:[#6](:[#6](:[#6](:[#6](:[#6]:1-[H])-[H])-[H])-[H])-[H])-[H]'],"['InChI=1S/C15H11ClN2O2/c16-10-6-7-12-11(8-10)13(9-4-2-1-3-5-9)18-15(20)14(19)17-12/h1-8,15,20H,(H,17,19)/t15-/m1/s1']",['ADIMAYPTOBDMTL-OAHLLOKOSA-N']
chlordiazepoxide_cation->neut,4.6,chlordiazepoxide,profiles of drug substances excipiends and related (U),"['[H]c1c([H])c([H])c(C2=c3c([H])c(Cl)c([H])c([H])c3=N/C(=[N+](\\[H])C([H])([H])[H])C([H])([H])N2[O-])c([H])c1[H]', '[H]c1c([H])c([H])c(C2=c3c([H])c(Cl)c([H])c([H])c3=N/C(=[N+](/[H])C([H])([H])[H])C([H])([H])N2[O-])c([H])c1[H]']","['[#17]-[#6]1:[#6](:[#6]2=[#6](-[#7](-[#8-])-[#6@@](/[#6](-[#7]=[#6]:2:[#6](:[#6]:1-[H])-[H])=[#7+](\\[#6@@](-[H])(-[H])-[H])-[H])(-[H])-[H])-[#6]1:[#6](:[#6](:[#6](:[#6](:[#6]:1-[H])-[H])-[H])-[H])-[H])-[H]', '[#17]-[#6]1:[#6](:[#6]2=[#6](-[#7](-[#8-])-[#6@@](/[#6](-[#7]=[#6]:2:[#6](:[#6]:1-[H])-[H])=[#7+](/[#6@@](-[H])(-[H])-[H])-[H])(-[H])-[H])-[#6]1:[#6](:[#6](:[#6](:[#6](:[#6]:1-[H])-[H])-[H])-[H])-[H])-[H]']","['InChI=1S/C16H13ClN3O/c1-18-15-10-20(21)16(11-5-3-2-4-6-11)13-9-12(17)7-8-14(13)19-15/h2-9H,10H2,1H3/q-1/p+1/b18-15+', 'InChI=1S/C16H13ClN3O/c1-18-15-10-20(21)16(11-5-3-2-4-6-11)13-9-12(17)7-8-14(13)19-15/h2-9H,10H2,1H3/q-1/p+1/b18-15-']","['LIKGQLAKDRVFLR-OBGWFSINSA-O', 'LIKGQLAKDRVFLR-SDXDJHTJSA-O']"
7acetamidonitrazepan_cation->neut,3.2,7-acetamido-nitrazepam,profiles of drug substances excipiends and related (U),['[H]c1c([H])c([H])c(C2=NC([H])([H])C(=O)N([H])c3c([H])c([H])c(N([H])C(=O)C([H])([H])[H])c([H])c32)c([H])c1[H]'],['[#8]=[#6]1-[#7](-[#6]2:[#6](-[#6](=[#7]-[#6@]-1(-[H])-[H])-[#6]1:[#6](:[#6](:[#6](:[#6](:[#6]:1-[H])-[H])-[H])-[H])-[H]):[#6](:[#6](-[#7](-[#6](=[#8])-[#6@](-[H])(-[H])-[H])-[H]):[#6](:[#6]:2-[H])-[H])-[H])-[H]'],"['InChI=1S/C17H15N3O2/c1-11(21)19-13-7-8-15-14(9-13)17(18-10-16(22)20-15)12-5-3-2-4-6-12/h2-9H,10H2,1H3,(H,19,21)(H,20,22)']",['JHTJXLGLYZQIGI-UHFFFAOYSA-N']
7acetamidonitrazepan_neut->an,12.4,7-acetamido-nitrazepam,profiles of drug substances excipiends and related (U),['[H]c1c([H])c([H])c(C2=NC([H])([H])C(=O)N([H])c3c([H])c([H])c(N([H])C(=O)C([H])([H])[H])c([H])c32)c([H])c1[H]'],['[#8]=[#6]1-[#7](-[#6]2:[#6](-[#6](=[#7]-[#6@]-1(-[H])-[H])-[#6]1:[#6](:[#6](:[#6](:[#6](:[#6]:1-[H])-[H])-[H])-[H])-[H]):[#6](:[#6](-[#7](-[#6](=[#8])-[#6@](-[H])(-[H])-[H])-[H]):[#6](:[#6]:2-[H])-[H])-[H])-[H]'],"['InChI=1S/C17H15N3O2/c1-11(21)19-13-7-8-15-14(9-13)17(18-10-16(22)20-15)12-5-3-2-4-6-12/h2-9H,10H2,1H3,(H,19,21)(H,20,22)']",['JHTJXLGLYZQIGI-UHFFFAOYSA-N']
7aminoonitrazepan_2cation->cation,2.5,7-amino-nitrazepam,profiles of drug substances excipiends and related (U),['[H]c1c([H])c([H])c(C2=NC([H])([H])C(=O)N([H])c3c([H])c([H])c(N([H])[H])c([H])c32)c([H])c1[H]'],['[#8]=[#6]1-[#7](-[#6]2:[#6](-[#6](=[#7]-[#6@]-1(-[H])-[H])-[#6]1:[#6](:[#6](:[#6](:[#6](:[#6]:1-[H])-[H])-[H])-[H])-[H]):[#6](:[#6](-[#7](-[H])-[H]):[#6](:[#6]:2-[H])-[H])-[H])-[H]'],"['InChI=1S/C15H13N3O/c16-11-6-7-13-12(8-11)15(17-9-14(19)18-13)10-4-2-1-3-5-10/h1-8H,9,16H2,(H,18,19)']",['OYOUQHVDCKOOAL-UHFFFAOYSA-N']
7aminoonitrazepan_cation->neut,4.6,7-amino-nitrazepam,profiles of drug substances excipiends and related (U),['[H]c1c([H])c([H])c(C2=NC([H])([H])C(=O)N([H])c3c([H])c([H])c(N([H])[H])c([H])c32)c([H])c1[H]'],['[#8]=[#6]1-[#7](-[#6]2:[#6](-[#6](=[#7]-[#6@]-1(-[H])-[H])-[#6]1:[#6](:[#6](:[#6](:[#6](:[#6]:1-[H])-[H])-[H])-[H])-[H]):[#6](:[#6](-[#7](-[H])-[H]):[#6](:[#6]:2-[H])-[H])-[H])-[H]'],"['InChI=1S/C15H13N3O/c16-11-6-7-13-12(8-11)15(17-9-14(19)18-13)10-4-2-1-3-5-10/h1-8H,9,16H2,(H,18,19)']",['OYOUQHVDCKOOAL-UHFFFAOYSA-N']
7aminoonitrazepan_neut->an,13.1,7-amino-nitrazepam,profiles of drug substances excipiends and related (U),['[H]c1c([H])c([H])c(C2=NC([H])([H])C(=O)N([H])c3c([H])c([H])c(N([H])[H])c([H])c32)c([H])c1[H]'],['[#8]=[#6]1-[#7](-[#6]2:[#6](-[#6](=[#7]-[#6@]-1(-[H])-[H])-[#6]1:[#6](:[#6](:[#6](:[#6](:[#6]:1-[H])-[H])-[H])-[H])-[H]):[#6](:[#6](-[#7](-[H])-[H]):[#6](:[#6]:2-[H])-[H])-[H])-[H]'],"['InChI=1S/C15H13N3O/c16-11-6-7-13-12(8-11)15(17-9-14(19)18-13)10-4-2-1-3-5-10/h1-8H,9,16H2,(H,18,19)']",['OYOUQHVDCKOOAL-UHFFFAOYSA-N']
benzoylecgoninemethylester_cation->neut,8.7,benzoylecgonine methyl ester,profiles of drug substances excipiends and related (A),['[H]c1c([H])c([H])c(C(=O)O[C@@]2([H])C([H])([H])[C@@]3([H])N(C([H])([H])[H])[C@]([H])(C([H])([H])C3([H])[H])[C@@]2([H])C(=O)OC([H])([H])[H])c([H])c1[H]'],['[#8](-[#6@@]1(-[#6@@](-[#6@@]2(-[#7](-[#6@@](-[#6@](-[#6@@]-2(-[H])-[H])(-[H])-[H])(-[#6@@]-1(-[H])-[H])-[H])-[#6@](-[H])(-[H])-[H])-[H])(-[#6](-[#8]-[#6@@](-[H])(-[H])-[H])=[#8])-[H])-[H])-[#6](=[#8])-[#6]1:[#6](:[#6](:[#6](:[#6](:[#6]:1-[H])-[H])-[H])-[H])-[H]'],"['InChI=1S/C17H21NO4/c1-18-12-8-9-13(18)15(17(20)21-2)14(10-12)22-16(19)11-6-4-3-5-7-11/h3-7,12-15H,8-10H2,1-2H3/t12-,13+,14-,15+/m0/s1']",['ZPUCINDJVBIVPJ-LJISPDSOSA-N']