compn,pKa,correct name,reference,smiles,smarts,inchi,inchiKey
2367tetrahydroimiazo12apyrimidin51hone_cation->neut,8.25,"2,3,6,7-tetrahydroimidazo(1,2-a)pyrimidin-5(1h)-one",10.1002/jcc.23068,"['[H]N1C2=NC([H])([H])C([H])([H])C(=O)N2C([H])([H])C1([H])[H]', '[H]N1C2=NC([H])([H])C([H])([H])N2C(=O)C([H])([H])C1([H])[H]']","['[#8]=[#6]1-[#7]2-[#6@](-[#6@@](-[#7](-[#6]-2=[#7]-[#6@](-[#6@]-1(-[H])-[H])(-[H])-[H])-[H])(-[H])-[H])(-[H])-[H]', '[#8]=[#6]1-[#7]2-[#6@](-[#6@@](-[#7]=[#6]-2-[#7](-[#6@](-[#6@]-1(-[H])-[H])(-[H])-[H])-[H])(-[H])-[H])(-[H])-[H]']","['InChI=1S/C6H9N3O/c10-5-1-2-7-6-8-3-4-9(5)6/h1-4H2,(H,7,8)']",['KXOXEIRPXQUVET-UHFFFAOYSA-N']
5678tetrahydropteridine_cation->neut,6.63,"5,6,7,8-tetrahydropteridine",10.1002/jcc.23068,['[H]c1nc([H])c2c(n1)N([H])C([H])([H])C([H])([H])N2[H]'],['[#7]1(-[#6@](-[#6@@](-[#7](-[#6]2:[#7]:[#6](:[#7]:[#6](:[#6]:2-1)-[H])-[H])-[H])(-[H])-[H])(-[H])-[H])-[H]'],"['InChI=1S/C6H8N4/c1-2-9-6-5(8-1)3-7-4-10-6/h3-4,8H,1-2H2,(H,7,9,10)']",['IDAICLIJTRXNER-UHFFFAOYSA-N']
4bromoisoquinoline_cation->neut,3.31,4-bromoisoquinoline,10.1002/jcc.23068,['[H]c1nc([H])c2c([H])c([H])c([H])c([H])c2c1Br'],['[#7]1:[#6](:[#6]2:[#6](:[#6](:[#6](:[#6](:[#6]:2-[H])-[H])-[H])-[H]):[#6](:[#6]:1-[H])-[#35])-[H]'],['InChI=1S/C9H6BrN/c10-9-6-11-5-7-3-1-2-4-8(7)9/h1-6H'],['SCRBSGZBTHKAHU-UHFFFAOYSA-N']
2aminoquinazoline_cation->neut,4.83,2-aminoquinazoline,pubs.rsc.org/en/content/articlepdf/1966/j3/j39660000234,['[H]c1c([H])c([H])c2c([H])nc(N([H])[H])nc2c1[H]'],['[#7]1:[#6]2:[#6](:[#6](:[#6](:[#6](:[#6]:2-[H])-[H])-[H])-[H]):[#6](:[#7]:[#6]:1-[#7](-[H])-[H])-[H]'],"['InChI=1S/C8H7N3/c9-8-10-5-6-3-1-2-4-7(6)11-8/h1-5H,(H2,9,10,11)']",['CZAAKPFIWJXPQT-UHFFFAOYSA-N']
4aminoquinazoline_cation->neut,5.76,4-aminoquinazoline,10.1002/jcc.23068,['[H]c1nc(N([H])[H])c2c([H])c([H])c([H])c([H])c2n1'],['[#7]1:[#6]2:[#6](:[#6](:[#6](:[#6](:[#6]:2-[H])-[H])-[H])-[H]):[#6](:[#7]:[#6]:1-[H])-[#7](-[H])-[H]'],"['InChI=1S/C8H7N3/c9-8-6-3-1-2-4-7(6)10-5-11-8/h1-5H,(H2,9,10,11)']",['DRYRBWIFRVMRPV-UHFFFAOYSA-N']
4methoxycinnoline_cation->neut,3.14,4-methoxycinnoline,10.1002/jcc.23068,['[H]c1nnc2c([H])c([H])c([H])c([H])c2c1OC([H])([H])[H]'],['[#8](-[#6]1:[#6]2:[#6](:[#7]:[#7]:[#6]:1-[H]):[#6](:[#6](:[#6](:[#6]:2-[H])-[H])-[H])-[H])-[#6@](-[H])(-[H])-[H]'],"['InChI=1S/C9H8N2O/c1-12-9-6-10-11-8-5-3-2-4-7(8)9/h2-6H,1H3']",['XVPKWOIIQKBTFD-UHFFFAOYSA-N']
4methylthiocinnoline_cation->neut,3.15,4-(methylthio)cinnoline,10.1002/jcc.23068,['[H]c1nnc2c([H])c([H])c([H])c([H])c2c1SC([H])([H])[H]'],['[#7]1:[#7]:[#6](:[#6](:[#6]2:[#6]:1:[#6](:[#6](:[#6](:[#6]:2-[H])-[H])-[H])-[H])-[#16]-[#6@@](-[H])(-[H])-[H])-[H]'],"['InChI=1S/C9H8N2S/c1-12-9-6-10-11-8-5-3-2-4-7(8)9/h2-6H,1H3']",['ZZCPXQKWVPJNSJ-UHFFFAOYSA-N']
2bromopyrimidine_cation->neut,-1.63,2-bromopyrimidine,10.1002/jcc.23068,['[H]c1nc(Br)nc([H])c1[H]'],['[#35]-[#6]1:[#7]:[#6](:[#6](:[#6](:[#7]:1)-[H])-[H])-[H]'],['InChI=1S/C4H3BrN2/c5-4-6-2-1-3-7-4/h1-3H'],['PGFIHORVILKHIA-UHFFFAOYSA-N']
1methylthionaphtalazine_cation->neut,3.46,1-methylthiophthalazine,10.1002/jcc.23068,['[H]c1c([H])c([H])c2c(SC([H])([H])[H])nnc([H])c2c1[H]'],['[#7]1:[#7]:[#6](:[#6]2:[#6](:[#6]:1-[#16]-[#6@@](-[H])(-[H])-[H]):[#6](:[#6](:[#6](:[#6]:2-[H])-[H])-[H])-[H])-[H]'],"['InChI=1S/C9H8N2S/c1-12-9-8-5-3-2-4-7(8)6-10-11-9/h2-6H,1H3']",['NNNCDYDQBKUQBR-UHFFFAOYSA-N']
1aminonaphtalazine_cation->neut,6.58,1-aminophthalazine,10.1002/jcc.23068,['[H]c1c([H])c([H])c2c(N([H])[H])nnc([H])c2c1[H]'],['[#7]1:[#7]:[#6](:[#6]2:[#6](:[#6]:1-[#7](-[H])-[H]):[#6](:[#6](:[#6](:[#6]:2-[H])-[H])-[H])-[H])-[H]'],"['InChI=1S/C8H7N3/c9-8-7-4-2-1-3-6(7)5-10-11-8/h1-5H,(H2,9,11)']",['WTYSCLHDMXBMKM-UHFFFAOYSA-N']
2methoxyquinoxaline_cation->neut,0.28,2-methoxyquinoxaline,10.1002/jcc.23068,['[H]c1nc2c([H])c([H])c([H])c([H])c2nc1OC([H])([H])[H]'],['[#7]1:[#6]2:[#6](:[#7]:[#6](:[#6]:1-[#8]-[#6@@](-[H])(-[H])-[H])-[H]):[#6](:[#6](:[#6](:[#6]:2-[H])-[H])-[H])-[H]'],"['InChI=1S/C9H8N2O/c1-12-9-6-10-7-4-2-3-5-8(7)11-9/h2-6H,1H3']",['BAXABXIZQPAJEF-UHFFFAOYSA-N']
23dimethoxyquinoxaline_cation->neut,-1.15,"2,3-dimethoxyquinoxaline",10.1002/jcc.23068,['[H]c1c([H])c([H])c2nc(OC([H])([H])[H])c(OC([H])([H])[H])nc2c1[H]'],['[#7]1:[#6]2:[#6](:[#7]:[#6](:[#6]:1-[#8]-[#6@@](-[H])(-[H])-[H])-[#8]-[#6@@](-[H])(-[H])-[H]):[#6](:[#6](:[#6](:[#6]:2-[H])-[H])-[H])-[H]'],"['InChI=1S/C10H10N2O2/c1-13-9-10(14-2)12-8-6-4-3-5-7(8)11-9/h3-6H,1-2H3']",['CRAYFGFTLBTRRS-UHFFFAOYSA-N']
6methoxyphenanthridine_cation->neut,2.38,6-methoxyphenanthridine,10.1002/jcc.23068,['[H]c1c([H])c([H])c2c(nc(OC([H])([H])[H])c3c([H])c([H])c([H])c([H])c32)c1[H]'],['[#8](-[#6]1:[#7]:[#6]2:[#6](:[#6]3:[#6]:1:[#6](:[#6](:[#6](:[#6]:3-[H])-[H])-[H])-[H]):[#6](:[#6](:[#6](:[#6]:2-[H])-[H])-[H])-[H])-[#6@](-[H])(-[H])-[H]'],"['InChI=1S/C14H11NO/c1-16-14-12-8-3-2-6-10(12)11-7-4-5-9-13(11)15-14/h2-9H,1H3']",['CFXXLOSWIXYUGN-UHFFFAOYSA-N']
2amino7methylbenzothiazole_cation->neut,4.25,2-amino-7-methylbenzothiazole,10.1002/jcc.23068,['[H]c1c([H])c(C([H])([H])[H])c2sc(N([H])[H])nc2c1[H]'],['[#16]1:[#6]2:[#6](:[#7]:[#6]:1-[#7](-[H])-[H]):[#6](:[#6](:[#6](:[#6]:2-[#6@@](-[H])(-[H])-[H])-[H])-[H])-[H]'],"['InChI=1S/C8H8N2S/c1-5-3-2-4-6-7(5)11-8(9)10-6/h2-4H,1H3,(H2,9,10)']",['JNPSTPOSZUGYDH-UHFFFAOYSA-N']
2amino5methoxybenzothiazole_cation->neut,4.29,2-amino-5-methoxybenzothiazole,10.1002/jcc.23068,['[H]c1c(OC([H])([H])[H])c([H])c2nc(N([H])[H])sc2c1[H]'],['[#16]1:[#6]2:[#6](:[#7]:[#6]:1-[#7](-[H])-[H]):[#6](:[#6](:[#6](:[#6]:2-[H])-[H])-[#8]-[#6@@](-[H])(-[H])-[H])-[H]'],"['InChI=1S/C8H8N2OS/c1-11-5-2-3-7-6(4-5)10-8(9)12-7/h2-4H,1H3,(H2,9,10)']",['OMIHQJBWAPWLBO-UHFFFAOYSA-N']
2amino15dihydro4Himidazol4one_cation->neut,4.8,"2-amino-1,5-dihydro-4h-imidazol-4-one",10.1002/jcc.23068,"['[H]N([H])C1=NC([H])([H])C(=O)N1[H]', '[H]N([H])C1=NC(=O)C([H])([H])N1[H]']","['[#8]=[#6]1-[#7](-[#6](=[#7]-[#6@]-1(-[H])-[H])-[#7](-[H])-[H])-[H]', '[#8]=[#6]1-[#7]=[#6](-[#7](-[#6@]-1(-[H])-[H])-[H])-[#7](-[H])-[H]']","['InChI=1S/C3H5N3O/c4-3-5-1-2(7)6-3/h1H2,(H3,4,5,6,7)']",['TYKJILJOXAHUFO-UHFFFAOYSA-N']
nacetylimidazolin2imine_cation->neut,7.48,"n-(4,5-dihydro-1h-imidazol-2-yl)acetamide",10.1002/jcc.23068,"['[H]N1C(=NC(=O)C([H])([H])[H])N([H])C([H])([H])C1([H])[H]', '[H]N(C(=O)C([H])([H])[H])C1=NC([H])([H])C([H])([H])N1[H]']","['[#7]1(-[#6@](-[#6@@](-[#7](-[#6]-1=[#7]-[#6](=[#8])-[#6@@](-[H])(-[H])-[H])-[H])(-[H])-[H])(-[H])-[H])-[H]', '[#7]1-[#6@](-[#6@@](-[#7](-[#6]=1-[#7](-[#6](=[#8])-[#6@@](-[H])(-[H])-[H])-[H])-[H])(-[H])-[H])(-[H])-[H]']","['InChI=1S/C5H9N3O/c1-4(9)8-5-6-2-3-7-5/h2-3H2,1H3,(H2,6,7,8,9)']",['DNRFPVXCXURUTI-UHFFFAOYSA-N']
4carbamoylimidazole_cation->neut,3.7,4-imidazolecarboxamide,10.1002/jcc.23068,"['[H]c1nc(C(=O)N([H])[H])c([H])n1[H]', '[H]c1nc([H])n([H])c1C(=O)N([H])[H]']","['[#7]1(:[#6](:[#6](:[#7]:[#6]:1-[H])-[#6](=[#8])-[#7](-[H])-[H])-[H])-[H]', '[#7]1:[#6](:[#6](:[#7](:[#6]:1-[H])-[H])-[#6](=[#8])-[#7](-[H])-[H])-[H]']","['InChI=1S/C4H5N3O/c5-4(8)3-1-6-2-7-3/h1-2H,(H2,5,8)(H,6,7)']",['ZBNZAJFNDPPMDT-UHFFFAOYSA-N']
4chloro1methylimidazole_cation->neut,3.1,4-chloro-1-methylimidazole,10.1002/jcc.23068,['[H]c1nc(Cl)c([H])n1C([H])([H])[H]'],['[#17]-[#6]1:[#7]:[#6](:[#7](:[#6]:1-[H])-[#6@@](-[H])(-[H])-[H])-[H]'],"['InChI=1S/C4H5ClN2/c1-7-2-4(5)6-3-7/h2-3H,1H3']",['HSJTXGIHVAZHGA-UHFFFAOYSA-N']
4methyl1phenylimidazole_cation->neut,5.78,1-methyl-4-phenylimidazole,10.1002/jcc.23068,['[H]c1c([H])c([H])c(-c2nc([H])n(C([H])([H])[H])c2[H])c([H])c1[H]'],['[#7]1(:[#6](:[#6](:[#7]:[#6]:1-[H])-[#6]1:[#6](:[#6](:[#6](:[#6](:[#6]:1-[H])-[H])-[H])-[H])-[H])-[H])-[#6@@](-[H])(-[H])-[H]'],"['InChI=1S/C10H10N2/c1-12-7-10(11-8-12)9-5-3-2-4-6-9/h2-8H,1H3']",['KTGYDKACJATEDM-UHFFFAOYSA-N']
pyrazole_cation->neut,2.48,benzopyrazole,https://doi.org/10.1016/S0065-2725(08)60162-2,['[H]c1nn([H])c([H])c1[H]'],['[#7]1(:[#7]:[#6](:[#6](:[#6]:1-[H])-[H])-[H])-[H]'],"['InChI=1S/C3H4N2/c1-2-4-5-3-1/h1-3H,(H,4,5)']",['WTKZEGDFNFYCGP-UHFFFAOYSA-N']
nmethylpyrazole_cation->neut,2.08,n-methylpyrazole,10.1002/jcc.23068,['[H]c1nn(C([H])([H])[H])c([H])c1[H]'],['[#7]1(:[#7]:[#6](:[#6](:[#6]:1-[H])-[H])-[H])-[#6@@](-[H])(-[H])-[H]'],"['InChI=1S/C4H6N2/c1-6-4-2-3-5-6/h2-4H,1H3']",['UQFQONCQIQEYPJ-UHFFFAOYSA-N']
13dimethylpyrazole_cation->neut,2.97,"1,3-dimethylpyrazole",10.1002/jcc.23068,['[H]c1c(C([H])([H])[H])nn(C([H])([H])[H])c1[H]'],['[#7]1(:[#7]:[#6](:[#6](:[#6]:1-[H])-[H])-[#6@@](-[H])(-[H])-[H])-[#6@@](-[H])(-[H])-[H]'],"['InChI=1S/C5H8N2/c1-5-3-4-7(2)6-5/h3-4H,1-2H3']",['NODLZCJDRXTSJO-UHFFFAOYSA-N']
3methylpyrazole_cation->neut,3.43,3-methylpyrazole,10.1002/jcc.23068,"['[H]c1nn([H])c(C([H])([H])[H])c1[H]', '[H]c1c(C([H])([H])[H])nn([H])c1[H]']","['[#7]1(:[#7]:[#6](:[#6](:[#6]:1-[#6@@](-[H])(-[H])-[H])-[H])-[H])-[H]', '[#7]1:[#7](:[#6](:[#6](:[#6]:1-[#6@@](-[H])(-[H])-[H])-[H])-[H])-[H]']","['InChI=1S/C4H6N2/c1-4-2-3-5-6-4/h2-3H,1H3,(H,5,6)']",['XKVUYEYANWFIJX-UHFFFAOYSA-N']
35dimethylpyrazole_cation->neut,4.25,"3,5-dimethylpyrazole",10.1002/jcc.23068,['[H]c1c(C([H])([H])[H])nn([H])c1C([H])([H])[H]'],['[#7]1(:[#7]:[#6](:[#6](:[#6]:1-[#6@@](-[H])(-[H])-[H])-[H])-[#6@@](-[H])(-[H])-[H])-[H]'],"['InChI=1S/C5H8N2/c1-4-3-5(2)7-6-4/h3H,1-2H3,(H,6,7)']",['SDXAWLJRERMRKF-UHFFFAOYSA-N']
2methoxypyrazine_cation->neut,0.75,2-methoxypyrazine,10.1002/jcc.23068,['[H]c1nc([H])c(OC([H])([H])[H])nc1[H]'],['[#8](-[#6]1:[#7]:[#6](:[#6](:[#7]:[#6]:1-[H])-[H])-[H])-[#6@](-[H])(-[H])-[H]'],"['InChI=1S/C5H6N2O/c1-8-5-4-6-2-3-7-5/h2-4H,1H3']",['WKSXRWSOSLGSTN-UHFFFAOYSA-N']
2methylthiopyrazine_cation->neut,0.51,2-methylthiopyrazine,10.1002/jcc.23068,['[H]c1nc([H])c(SC([H])([H])[H])nc1[H]'],['[#16](-[#6]1:[#7]:[#6](:[#6](:[#7]:[#6]:1-[H])-[H])-[H])-[#6@](-[H])(-[H])-[H]'],"['InChI=1S/C5H6N2S/c1-8-5-4-6-2-3-7-5/h2-4H,1H3']",['KBPBOWBQRUXMFV-UHFFFAOYSA-N']
2carbamoylpyrazine_cation->neut,-0.5,2-carbamylpyrazine,10.1002/jcc.23068,['[H]c1nc([H])c(C(=O)N([H])[H])nc1[H]'],['[#8]=[#6](-[#7](-[H])-[H])-[#6]1:[#7]:[#6](:[#6](:[#7]:[#6]:1-[H])-[H])-[H]'],"['InChI=1S/C5H5N3O/c6-5(9)4-3-7-1-2-8-4/h1-3H,(H2,6,9)']",['IPEHBUMCGVEMRF-UHFFFAOYSA-N']
1mercaptoisoquinoline_neut->an,10.84,1-mercaptoisoquinoline,10.1002/jcc.23068,"['[H]Sc1nc([H])c([H])c2c([H])c([H])c([H])c([H])c12', '[H]c1c([H])c([H])c2c(=S)n([H])c([H])c([H])c2c1[H]']","['[#7]1:[#6](:[#6]2:[#6](:[#6](:[#6](:[#6](:[#6]:2-[H])-[H])-[H])-[H]):[#6](:[#6]:1-[H])-[H])-[#16]-[H]', '[#7]1(:[#6](:[#6]2:[#6](:[#6](:[#6](:[#6](:[#6]:2-[H])-[H])-[H])-[H]):[#6](:[#6]:1-[H])-[H])=[#16])-[H]']","['InChI=1S/C9H7NS/c11-9-8-4-2-1-3-7(8)5-6-10-9/h1-6H,(H,10,11)']",['IOYIDSMWPLNHRC-UHFFFAOYSA-N']
6bromo4chloroquinoline_cation->neut,2.83,6-bromo-4-chloroquinoline,10.1002/jcc.23068,['[H]c1nc2c([H])c([H])c(Br)c([H])c2c(Cl)c1[H]'],['[#35]-[#6]1:[#6](:[#6]2:[#6](:[#7]:[#6](:[#6](:[#6]:2-[#17])-[H])-[H]):[#6](:[#6]:1-[H])-[H])-[H]'],['InChI=1S/C9H5BrClN/c10-6-1-2-9-7(5-6)8(11)3-4-12-9/h1-5H'],['KJILYZMXTLCPDQ-UHFFFAOYSA-N']
2amino5chloropyrimidine_cation->neut,1.73,2-amino-5-chloropyrimidine,10.1002/jcc.23068,['[H]c1nc(N([H])[H])nc([H])c1Cl'],['[#17]-[#6]1:[#6](:[#7]:[#6](:[#7]:[#6]:1-[H])-[#7](-[H])-[H])-[H]'],"['InChI=1S/C4H4ClN3/c5-3-1-7-4(6)8-2-3/h1-2H,(H2,6,7,8)']",['OQZMDDKDHRIGDY-UHFFFAOYSA-N']
2amino5pchlorphenylpyrimidine_cation->neut,3.14,5-(4-chlorophenyl)pyrimidin-2-amine,10.1002/jcc.23068,['[H]c1nc(N([H])[H])nc([H])c1-c1c([H])c([H])c(Cl)c([H])c1[H]'],['[#7]1:[#6](:[#7]:[#6](:[#6](:[#6]:1-[H])-[#6]1:[#6](:[#6](:[#6](:[#6](:[#6]:1-[H])-[H])-[#17])-[H])-[H])-[H])-[#7](-[H])-[H]'],"['InChI=1S/C10H8ClN3/c11-9-3-1-7(2-4-9)8-5-13-10(12)14-6-8/h1-6H,(H2,12,13,14)']",['WEZVFMYJNSHYLG-UHFFFAOYSA-N']
2amino5cyanopyrimidine_cation->neut,0.66,2-amino-5-cyanopyrimidine,10.1002/9780470186763,['[H]c1nc(N([H])[H])nc([H])c1C#N'],['[#7]1:[#6](:[#7]:[#6](:[#6](:[#6]:1-[H])-[#6]#[#7])-[H])-[#7](-[H])-[H]'],"['InChI=1S/C5H4N4/c6-1-4-2-8-5(7)9-3-4/h2-3H,(H2,7,8,9)']",['SEUSFEKWVIFWTN-UHFFFAOYSA-N']
2amino4methylpyrimidine_cation->neut,4.13,2-amino-4-methylpyrimidine,10.1002/jcc.23068,['[H]c1nc(N([H])[H])nc(C([H])([H])[H])c1[H]'],['[#7]1:[#6](:[#6](:[#6](:[#7]:[#6]:1-[#7](-[H])-[H])-[H])-[H])-[#6@@](-[H])(-[H])-[H]'],"['InChI=1S/C5H7N3/c1-4-2-3-7-5(6)8-4/h2-3H,1H3,(H2,6,7,8)']",['GHCFWKFREBNSPC-UHFFFAOYSA-N']
2amino46dimethylpyrimidine_cation->neut,4.86,"2-amino-4,6-dimethylpyrimidine",10.1002/jcc.23068,['[H]c1c(C([H])([H])[H])nc(N([H])[H])nc1C([H])([H])[H]'],['[#7]1:[#6](:[#6](:[#6](:[#7]:[#6]:1-[#7](-[H])-[H])-[#6@@](-[H])(-[H])-[H])-[H])-[#6@@](-[H])(-[H])-[H]'],"['InChI=1S/C6H9N3/c1-4-3-5(2)9-6(7)8-4/h3H,1-2H3,(H2,7,8,9)']",['IDQNBVFPZMCDDN-UHFFFAOYSA-N']
4amino6methylpyrimidine_cation->neut,6.16,4-amino-6-methylpyrimidine,10.1002/jcc.23068,['[H]c1nc(N([H])[H])c([H])c(C([H])([H])[H])n1'],['[#7]1:[#6](:[#6](:[#6](:[#7]:[#6]:1-[H])-[#7](-[H])-[H])-[H])-[#6@@](-[H])(-[H])-[H]'],"['InChI=1S/C5H7N3/c1-4-2-5(6)8-3-7-4/h2-3H,1H3,(H2,6,7,8)']",['LAERIBHKDNBVOO-UHFFFAOYSA-N']
4amino6chloropyrimidine_cation->neut,2.1,4-amino-6-chloropyrimidine,10.1002/jcc.23068,['[H]c1nc(Cl)c([H])c(N([H])[H])n1'],['[#7]1:[#6](:[#6](:[#6](:[#7]:[#6]:1-[H])-[#7](-[H])-[H])-[H])-[#17]'],"['InChI=1S/C4H4ClN3/c5-3-1-4(6)8-2-7-3/h1-2H,(H2,6,7,8)']",['DUKKRSPKJMHASP-UHFFFAOYSA-N']
mesomercaptosuccinic_neut->an,2.4,meso-dimercaptosuccinic acid,pubs.acs.org/doi/pdf/10.1021/ic50025a027,['[H]OC(=O)[C@]([H])(S[H])[C@]([H])(S[H])C(=O)O[H]'],['[#16](-[#6@](-[#6@](-[#16]-[H])(-[#6](-[#8]-[H])=[#8])-[H])(-[#6](-[#8]-[H])=[#8])-[H])-[H]'],"['InChI=1S/C4H6O4S2/c5-3(6)1(9)2(10)4(7)8/h1-2,9-10H,(H,5,6)(H,7,8)/t1-,2+']",['ACTRVOBWPAIOHC-XIXRPRMCSA-N']
mesomercaptosuccinic_an->2an,3.46,meso-dimercaptosuccinic acid,pubs.acs.org/doi/pdf/10.1021/ic50025a027,['[H]OC(=O)[C@]([H])(S[H])[C@]([H])(S[H])C(=O)O[H]'],['[#16](-[#6@](-[#6@](-[#16]-[H])(-[#6](-[#8]-[H])=[#8])-[H])(-[#6](-[#8]-[H])=[#8])-[H])-[H]'],"['InChI=1S/C4H6O4S2/c5-3(6)1(9)2(10)4(7)8/h1-2,9-10H,(H,5,6)(H,7,8)/t1-,2+']",['ACTRVOBWPAIOHC-XIXRPRMCSA-N']
mesomercaptosuccinic_2an->3an,9.44,meso-dimercaptosuccinic acid,pubs.acs.org/doi/pdf/10.1021/ic50025a027,['[H]OC(=O)[C@]([H])(S[H])[C@]([H])(S[H])C(=O)O[H]'],['[#16](-[#6@](-[#6@](-[#16]-[H])(-[#6](-[#8]-[H])=[#8])-[H])(-[#6](-[#8]-[H])=[#8])-[H])-[H]'],"['InChI=1S/C4H6O4S2/c5-3(6)1(9)2(10)4(7)8/h1-2,9-10H,(H,5,6)(H,7,8)/t1-,2+']",['ACTRVOBWPAIOHC-XIXRPRMCSA-N']
mesomercaptosuccinic_3an->4an,11.82,meso-dimercaptosuccinic acid,pubs.acs.org/doi/pdf/10.1021/ic50025a027,['[H]OC(=O)[C@]([H])(S[H])[C@]([H])(S[H])C(=O)O[H]'],['[#16](-[#6@](-[#6@](-[#16]-[H])(-[#6](-[#8]-[H])=[#8])-[H])(-[#6](-[#8]-[H])=[#8])-[H])-[H]'],"['InChI=1S/C4H6O4S2/c5-3(6)1(9)2(10)4(7)8/h1-2,9-10H,(H,5,6)(H,7,8)/t1-,2+']",['ACTRVOBWPAIOHC-XIXRPRMCSA-N']
benzenehexacarboxylic_neut->an,0.68,benzenehexacarboxylic acid,Lange's handbook of chemistry,['[H]OC(=O)c1c(C(=O)O[H])c(C(=O)O[H])c(C(=O)O[H])c(C(=O)O[H])c1C(=O)O[H]'],['[#8](-[#6](=[#8])-[#6]1:[#6](:[#6](:[#6](:[#6](:[#6]:1-[#6](-[#8]-[H])=[#8])-[#6](-[#8]-[H])=[#8])-[#6](-[#8]-[H])=[#8])-[#6](-[#8]-[H])=[#8])-[#6](-[#8]-[H])=[#8])-[H]'],"['InChI=1S/C12H6O12/c13-7(14)1-2(8(15)16)4(10(19)20)6(12(23)24)5(11(21)22)3(1)9(17)18/h(H,13,14)(H,15,16)(H,17,18)(H,19,20)(H,21,22)(H,23,24)']",['YDSWCNNOKPMOTP-UHFFFAOYSA-N']
benzenehexacarboxylic_an->2an,2.21,benzenehexacarboxylic acid,Lange's handbook of chemistry,['[H]OC(=O)c1c(C(=O)O[H])c(C(=O)O[H])c(C(=O)O[H])c(C(=O)O[H])c1C(=O)O[H]'],['[#8](-[#6](=[#8])-[#6]1:[#6](:[#6](:[#6](:[#6](:[#6]:1-[#6](-[#8]-[H])=[#8])-[#6](-[#8]-[H])=[#8])-[#6](-[#8]-[H])=[#8])-[#6](-[#8]-[H])=[#8])-[#6](-[#8]-[H])=[#8])-[H]'],"['InChI=1S/C12H6O12/c13-7(14)1-2(8(15)16)4(10(19)20)6(12(23)24)5(11(21)22)3(1)9(17)18/h(H,13,14)(H,15,16)(H,17,18)(H,19,20)(H,21,22)(H,23,24)']",['YDSWCNNOKPMOTP-UHFFFAOYSA-N']
benzenehexacarboxylic_4an->5an,6.32,benzenehexacarboxylic acid,Lange's handbook of chemistry,['[H]OC(=O)c1c(C(=O)O[H])c(C(=O)O[H])c(C(=O)O[H])c(C(=O)O[H])c1C(=O)O[H]'],['[#8](-[#6](=[#8])-[#6]1:[#6](:[#6](:[#6](:[#6](:[#6]:1-[#6](-[#8]-[H])=[#8])-[#6](-[#8]-[H])=[#8])-[#6](-[#8]-[H])=[#8])-[#6](-[#8]-[H])=[#8])-[#6](-[#8]-[H])=[#8])-[H]'],"['InChI=1S/C12H6O12/c13-7(14)1-2(8(15)16)4(10(19)20)6(12(23)24)5(11(21)22)3(1)9(17)18/h(H,13,14)(H,15,16)(H,17,18)(H,19,20)(H,21,22)(H,23,24)']",['YDSWCNNOKPMOTP-UHFFFAOYSA-N']
benzenehexacarboxylic_5an->6an,7.49,benzenehexacarboxylic acid,Lange's handbook of chemistry,['[H]OC(=O)c1c(C(=O)O[H])c(C(=O)O[H])c(C(=O)O[H])c(C(=O)O[H])c1C(=O)O[H]'],['[#8](-[#6](=[#8])-[#6]1:[#6](:[#6](:[#6](:[#6](:[#6]:1-[#6](-[#8]-[H])=[#8])-[#6](-[#8]-[H])=[#8])-[#6](-[#8]-[H])=[#8])-[#6](-[#8]-[H])=[#8])-[#6](-[#8]-[H])=[#8])-[H]'],"['InChI=1S/C12H6O12/c13-7(14)1-2(8(15)16)4(10(19)20)6(12(23)24)5(11(21)22)3(1)9(17)18/h(H,13,14)(H,15,16)(H,17,18)(H,19,20)(H,21,22)(H,23,24)']",['YDSWCNNOKPMOTP-UHFFFAOYSA-N']
benzenepentacarboxylic_4an->5an,6.46,benzenepentacarboxylic acid,Lange's handbook of chemistry,['[H]OC(=O)c1c([H])c(C(=O)O[H])c(C(=O)O[H])c(C(=O)O[H])c1C(=O)O[H]'],['[#8](-[#6](=[#8])-[#6]1:[#6](:[#6](:[#6](:[#6](:[#6]:1-[#6](-[#8]-[H])=[#8])-[#6](-[#8]-[H])=[#8])-[H])-[#6](-[#8]-[H])=[#8])-[#6](-[#8]-[H])=[#8])-[H]'],"['InChI=1S/C11H6O10/c12-7(13)2-1-3(8(14)15)5(10(18)19)6(11(20)21)4(2)9(16)17/h1H,(H,12,13)(H,14,15)(H,16,17)(H,18,19)(H,20,21)']",['QNSOHXTZPUMONC-UHFFFAOYSA-N']
benzenepentacarboxylic_neut->an,1.8,benzenepentacarboxylic acid,Lange's handbook of chemistry,['[H]OC(=O)c1c([H])c(C(=O)O[H])c(C(=O)O[H])c(C(=O)O[H])c1C(=O)O[H]'],['[#8](-[#6](=[#8])-[#6]1:[#6](:[#6](:[#6](:[#6](:[#6]:1-[#6](-[#8]-[H])=[#8])-[#6](-[#8]-[H])=[#8])-[H])-[#6](-[#8]-[H])=[#8])-[#6](-[#8]-[H])=[#8])-[H]'],"['InChI=1S/C11H6O10/c12-7(13)2-1-3(8(14)15)5(10(18)19)6(11(20)21)4(2)9(16)17/h1H,(H,12,13)(H,14,15)(H,16,17)(H,18,19)(H,20,21)']",['QNSOHXTZPUMONC-UHFFFAOYSA-N']
1245benzenetetracarboxylic_neut->an,1.92,"1,2,4,5-benzene-tetracarboxylic acid",Lange's handbook of chemistry,['[H]OC(=O)c1c([H])c(C(=O)O[H])c(C(=O)O[H])c([H])c1C(=O)O[H]'],['[#8](-[#6](=[#8])-[#6]1:[#6](:[#6](:[#6](:[#6](:[#6]:1-[H])-[#6](-[#8]-[H])=[#8])-[#6](-[#8]-[H])=[#8])-[H])-[#6](-[#8]-[H])=[#8])-[H]'],"['InChI=1S/C10H6O8/c11-7(12)3-1-4(8(13)14)6(10(17)18)2-5(3)9(15)16/h1-2H,(H,11,12)(H,13,14)(H,15,16)(H,17,18)']",['CYIDZMCFTVVTJO-UHFFFAOYSA-N']
1245benzenetetracarboxylic_3an->4an,5.63,"1,2,4,5-benzene-tetracarboxylic acid",Lange's handbook of chemistry,['[H]OC(=O)c1c([H])c(C(=O)O[H])c(C(=O)O[H])c([H])c1C(=O)O[H]'],['[#8](-[#6](=[#8])-[#6]1:[#6](:[#6](:[#6](:[#6](:[#6]:1-[H])-[#6](-[#8]-[H])=[#8])-[#6](-[#8]-[H])=[#8])-[H])-[#6](-[#8]-[H])=[#8])-[H]'],"['InChI=1S/C10H6O8/c11-7(12)3-1-4(8(13)14)6(10(17)18)2-5(3)9(15)16/h1-2H,(H,11,12)(H,13,14)(H,15,16)(H,17,18)']",['CYIDZMCFTVVTJO-UHFFFAOYSA-N']
1235benzenetetracarboxylic_3an->4an,5.81,"1,2,3,5-benzene-tetracarboxylic acid",Lange's handbook of chemistry,['[H]OC(=O)c1c([H])c(C(=O)O[H])c(C(=O)O[H])c(C(=O)O[H])c1[H]'],['[#8](-[#6](=[#8])-[#6]1:[#6](:[#6](:[#6](:[#6](:[#6]:1-[H])-[#6](-[#8]-[H])=[#8])-[#6](-[#8]-[H])=[#8])-[#6](-[#8]-[H])=[#8])-[H])-[H]'],"['InChI=1S/C10H6O8/c11-7(12)3-1-4(8(13)14)6(10(17)18)5(2-3)9(15)16/h1-2H,(H,11,12)(H,13,14)(H,15,16)(H,17,18)']",['NHDLVKOYPQPGNT-UHFFFAOYSA-N']
1235benzenetetracarboxylic_neut->an,2.38,"1,2,3,5-benzene-tetracarboxylic acid",Lange's handbook of chemistry,['[H]OC(=O)c1c([H])c(C(=O)O[H])c(C(=O)O[H])c(C(=O)O[H])c1[H]'],['[#8](-[#6](=[#8])-[#6]1:[#6](:[#6](:[#6](:[#6](:[#6]:1-[H])-[#6](-[#8]-[H])=[#8])-[#6](-[#8]-[H])=[#8])-[#6](-[#8]-[H])=[#8])-[H])-[H]'],"['InChI=1S/C10H6O8/c11-7(12)3-1-4(8(13)14)6(10(17)18)5(2-3)9(15)16/h1-2H,(H,11,12)(H,13,14)(H,15,16)(H,17,18)']",['NHDLVKOYPQPGNT-UHFFFAOYSA-N']
1234benzenetetracarboxylic_3an->4an,6.21,"1,2,3,4-benzene-tetracarboxylic acid",Lange's handbook of chemistry,['[H]OC(=O)c1c([H])c([H])c(C(=O)O[H])c(C(=O)O[H])c1C(=O)O[H]'],['[#8]=[#6](-[#8]-[H])-[#6]1:[#6](:[#6](:[#6](:[#6](:[#6]:1-[#6](-[#8]-[H])=[#8])-[#6](=[#8])-[#8]-[H])-[#6](-[#8]-[H])=[#8])-[H])-[H]'],"['InChI=1S/C10H6O8/c11-7(12)3-1-2-4(8(13)14)6(10(17)18)5(3)9(15)16/h1-2H,(H,11,12)(H,13,14)(H,15,16)(H,17,18)']",['GCAIEATUVJFSMC-UHFFFAOYSA-N']