compn,pKa,correct name,reference,smiles,smarts,inchi,inchiKey
malic_neut->an,3.46,malic acid,profiles of drug substances excipiends and related (A),['[H]OC(=O)C([H])([H])[C@@]([H])(O[H])C(=O)O[H]'],['[#6](=[#8])(-[#6@@](-[H])(-[H])-[#6@](-[H])(-[#6](=[#8])-[#8]-[H])-[#8]-[H])-[#8]-[H]'],"['InChI=1S/C4H6O5/c5-2(4(8)9)1-3(6)7/h2,5H,1H2,(H,6,7)(H,8,9)/t2-/m1/s1']",['BJEPYKJPYRNKOW-UWTATZPHSA-N']
malic_an->2an,5.1,malic acid,profiles of drug substances excipiends and related (A),['[H]OC(=O)C([H])([H])[C@@]([H])(O[H])C(=O)O[H]'],['[#6](=[#8])(-[#6@@](-[H])(-[H])-[#6@](-[H])(-[#6](=[#8])-[#8]-[H])-[#8]-[H])-[#8]-[H]'],"['InChI=1S/C4H6O5/c5-2(4(8)9)1-3(6)7/h2,5H,1H2,(H,6,7)(H,8,9)/t2-/m1/s1']",['BJEPYKJPYRNKOW-UWTATZPHSA-N']
malonic_neut->an,2.7,malonic acid,https://doi.org/10.1016/0022-1902(72)80587-6,['[H]OC(=O)C([H])([H])C(=O)O[H]'],['[#6](=[#8])(-[#8]-[H])-[#6@](-[H])(-[H])-[#6](=[#8])-[#8]-[H]'],"['InChI=1S/C3H4O4/c4-2(5)1-3(6)7/h1H2,(H,4,5)(H,6,7)']",['OFOBLEOULBTSOW-UHFFFAOYSA-N']
malonic_an->2an,5.26,malonic acid,https://doi.org/10.1016/0022-1902(72)80587-6,['[H]OC(=O)C([H])([H])C(=O)O[H]'],['[#6](=[#8])(-[#8]-[H])-[#6@](-[H])(-[H])-[#6](=[#8])-[#8]-[H]'],"['InChI=1S/C3H4O4/c4-2(5)1-3(6)7/h1H2,(H,4,5)(H,6,7)']",['OFOBLEOULBTSOW-UHFFFAOYSA-N']
mandelic_neut->an,3.4,mandelic acid,profiles of drug substances excipiends and related (U),['[H]OC(=O)[C@@]([H])(O[H])c1c([H])c([H])c([H])c([H])c1[H]'],['[#6]1(:[#6](:[#6](:[#6](:[#6](:[#6]:1-[H])-[H])-[H])-[#6@@](-[H])(-[#6](=[#8])-[#8]-[H])-[#8]-[H])-[H])-[H]'],"['InChI=1S/C8H8O3/c9-7(8(10)11)6-4-2-1-3-5-6/h1-5,7,9H,(H,10,11)/t7-/m0/s1']",['IWYDHOAUDWTVEP-ZETCQYMHSA-N']
manisidine_cation->neut,4.2,m-anisidine,Lange's handbook of chemistry,['[H]c1c([H])c(OC([H])([H])[H])c([H])c(N([H])[H])c1[H]'],['[#6]1(:[#6](:[#6](:[#6](:[#6](:[#6]:1-[H])-[H])-[H])-[#7](-[H])-[H])-[H])-[#8]-[#6@](-[H])(-[H])-[H]'],"['InChI=1S/C7H9NO/c1-9-7-4-2-3-6(8)5-7/h2-5H,8H2,1H3']",['NCBZRJODKRCREW-UHFFFAOYSA-N']
mbenzbetaine_cation->neut,3.217,m-Benzbetaine,"A. V. WIlli. Z. physik. Chem. N. F. 26, 42 (1960).",['[H]c1c([H])c(C(=O)[O-])c([H])c([N+](C([H])([H])[H])(C([H])([H])[H])C([H])([H])[H])c1[H]'],['[#8]=[#6](-[#8-])-[#6]1:[#6](:[#6](-[#7@+](-[#6@@](-[H])(-[H])-[H])(-[#6@@](-[H])(-[H])-[H])-[#6@@](-[H])(-[H])-[H]):[#6](:[#6](:[#6]:1-[H])-[H])-[H])-[H]'],"['InChI=1S/C10H13NO2/c1-11(2,3)9-6-4-5-8(7-9)10(12)13/h4-7H,1-3H3']",['PNXKNGBNZNQGRZ-UHFFFAOYSA-N']
mercaptopurine_neut->an,7.77,mercaptopurine,doi.org/10.1007/s00894-018-3892-4,"['[H]c1nc2nc([H])n([H])c2c(=S)n1[H]', '[H]c1nc(=S)[c-]2c(n1)[n+]([H])c([H])n2[H]', '[H]c1nc(=S)c2nc([H])n([H])c2n1[H]', '[H]c1nc2[c-](c(=S)[n+]1[H])n([H])[c-][n+]2[H]', '[H]c1nc2[c-](c(=S)[n+]([H])[c-][n+]2[H])n1[H]', '[H]C1=[N+]=C2C(=S)N([H])[C-]([H])N([H])C2=N1', '[H]Sc1nc([H])n([H])c2nc([H])nc1-2', '[H]Sc1c2nc([H])nc-2nc([H])n1[H]', '[H]c1nc2c(nc([H])n2[H])c(=S)n1[H]', '[H]Sc1nc([H])nc2nc([H])n([H])c12', '[H]Sc1nc([H])nc2c1nc([H])n2[H]', '[H]c1nc(=S)c2c(nc([H])n2[H])n1[H]']","['[#7]1:[#6](:[#7](:[#6]2:[#6](:[#7](:[#6](:[#7]:[#6]:1:2)-[H])-[H])=[#16])-[H])-[H]', '[#7]1(:[#6](:[#7](:[#6-]2:[#6](:[#7]:[#6](:[#7]:[#6]:1:2)-[H])=[#16])-[H])-[H])-[H]', '[#7]1(:[#6](:[#7]:[#6]2:[#6](:[#7]:[#6](:[#7](:[#6]:1:2)-[H])-[H])=[#16])-[H])-[H]', '[#7]1(:[#6-]:[#7](:[#6-]2:[#6](:[#7+](:[#6](:[#7]:[#6]:1:2)-[H])-[H])=[#16])-[H])-[H]', '[#7]1:[#6](:[#7](:[#6-]2:[#6](:[#7+](:[#6-]:[#7+](:[#6]:1:2)-[H])-[H])=[#16])-[H])-[H]', '[#7]1-[#6](=[#7+]=[#6]2-[#6](-[#7](-[#6-](-[#7](-[#6]=1-2)-[H])-[H])-[H])=[#16])-[H]', '[#7]1:[#6](:[#7]:[#6]2:[#6](:[#7]:[#6](:[#7](:[#6]:1-2)-[H])-[H])-[#16]-[H])-[H]', '[#7]1:[#6](:[#7]:[#6]2:[#6](:[#7](:[#6](:[#7]:[#6]:1-2)-[H])-[H])-[#16]-[H])-[H]', '[#7]1(:[#6](:[#7]:[#6]2:[#6](:[#7](:[#6](:[#7]:[#6]:1:2)-[H])-[H])=[#16])-[H])-[H]', '[#7]1:[#6](:[#7](:[#6]2:[#6](:[#7]:[#6](:[#7]:[#6]:1:2)-[H])-[#16]-[H])-[H])-[H]', '[#7]1(:[#6](:[#7]:[#6]2:[#6](:[#7]:[#6](:[#7]:[#6]:1:2)-[H])-[#16]-[H])-[H])-[H]', '[#7]1:[#6](:[#7](:[#6]2:[#6](:[#7]:[#6](:[#7](:[#6]:1:2)-[H])-[H])=[#16])-[H])-[H]']","['InChI=1S/C5H4N4S/c10-5-3-4(7-1-6-3)8-2-9-5/h1-2H,(H2,6,7,8,9,10)', 'InChI=1S/C5H3N4S/c10-5-3-4(7-1-6-3)8-2-9-5/h1-2H,(H,6,7,8,9,10)/q-1/p+1', 'InChI=1S/C5H3N4S/c10-5-3-4(7-1-6-3)8-2-9-5/h2,6-7H/q-1/p+1', 'InChI=1S/C5H4N4S/c10-5-3-4(7-1-6-3)8-2-9-5/h1,8-9H,(H,6,7)', 'InChI=1S/C5H3N4S/c10-5-3-4(7-1-6-3)8-2-9-5/h1-2H,(H,9,10)/q-1/p+1']","['GLVAUDGFNGKCSF-UHFFFAOYSA-N', 'MXIGUMBQYZCORC-UHFFFAOYSA-O', 'BSUHXMQNPHUPAP-UHFFFAOYSA-O', 'FIPXLAVATPMQDI-UHFFFAOYSA-N', 'UPFRWMWMGNBGEQ-UHFFFAOYSA-O']"
mesaconic_neut->an,3.09,mesaconic acid,Lange's handbook of chemistry,['[H]OC(=O)/C([H])=C(/C(=O)O[H])C([H])([H])[H]'],['[#6](=[#8])(-[#8]-[H])/[#6](=[#6](/[#6](=[#8])-[#8]-[H])-[#6@@](-[H])(-[H])-[H])-[H]'],"['InChI=1S/C5H6O4/c1-3(5(8)9)2-4(6)7/h2H,1H3,(H,6,7)(H,8,9)/b3-2+']",['HNEGQIOMVPPMNR-NSCUHMNNSA-N']
mesaconic_an->2an,4.75,mesaconic acid,Lange's handbook of chemistry,['[H]OC(=O)/C([H])=C(/C(=O)O[H])C([H])([H])[H]'],['[#6](=[#8])(-[#8]-[H])/[#6](=[#6](/[#6](=[#8])-[#8]-[H])-[#6@@](-[H])(-[H])-[H])-[H]'],"['InChI=1S/C5H6O4/c1-3(5(8)9)2-4(6)7/h2H,1H3,(H,6,7)(H,8,9)/b3-2+']",['HNEGQIOMVPPMNR-NSCUHMNNSA-N']
mesodibromosuccinic_neut->an,1.42,meso-dibromosuccinic acid,doi.org/10.1039/JR9590002492,['[H]OC(=O)[C@]([H])(Br)[C@]([H])(Br)C(=O)O[H]'],['[#35]-[#6@](-[#6@](-[#35])(-[#6](-[#8]-[H])=[#8])-[H])(-[#6](-[#8]-[H])=[#8])-[H]'],"['InChI=1S/C4H4Br2O4/c5-1(3(7)8)2(6)4(9)10/h1-2H,(H,7,8)(H,9,10)/t1-,2+']",['FJWGRXKOBIVTFA-XIXRPRMCSA-N']
mesodibromosuccinic_an->2an,2.97,meso-dibromosuccinic acid,doi.org/10.1039/JR9590002492,['[H]OC(=O)[C@]([H])(Br)[C@]([H])(Br)C(=O)O[H]'],['[#35]-[#6@](-[#6@](-[#35])(-[#6](-[#8]-[H])=[#8])-[H])(-[#6](-[#8]-[H])=[#8])-[H]'],"['InChI=1S/C4H4Br2O4/c5-1(3(7)8)2(6)4(9)10/h1-2H,(H,7,8)(H,9,10)/t1-,2+']",['FJWGRXKOBIVTFA-XIXRPRMCSA-N']
mesodichlorosuccinic_neut->an,1.74,dichlorosuccinic acid,doi.org/10.1039/JR9590002492,['[H]OC(=O)[C@]([H])(Cl)[C@]([H])(Cl)C(=O)O[H]'],['[#17]-[#6@@](-[#6@@](-[#6](-[#8]-[H])=[#8])(-[H])-[#17])(-[#6](-[#8]-[H])=[#8])-[H]'],"['InChI=1S/C4H4Cl2O4/c5-1(3(7)8)2(6)4(9)10/h1-2H,(H,7,8)(H,9,10)/t1-,2+']",['XSCRWBSKSVOZOK-XIXRPRMCSA-N']
mesodichlorosuccinic_an->2an,3.24,dichlorosuccinic acid,doi.org/10.1039/JR9590002492,['[H]OC(=O)[C@]([H])(Cl)[C@]([H])(Cl)C(=O)O[H]'],['[#17]-[#6@@](-[#6@@](-[#6](-[#8]-[H])=[#8])(-[H])-[#17])(-[#6](-[#8]-[H])=[#8])-[H]'],"['InChI=1S/C4H4Cl2O4/c5-1(3(7)8)2(6)4(9)10/h1-2H,(H,7,8)(H,9,10)/t1-,2+']",['XSCRWBSKSVOZOK-XIXRPRMCSA-N']
meso23dimethylsuccinic_neut->an,3.77,"meso-2,3-dimethylsuccinic acid",doi.org/10.1039/JR9590002492,['[H]OC(=O)[C@@]([H])(C([H])([H])[H])[C@]([H])(C(=O)O[H])C([H])([H])[H]'],['[#8](-[#6](=[#8])-[#6@@](-[#6@](-[#6@](-[H])(-[H])-[H])(-[#6](-[#8]-[H])=[#8])-[H])(-[#6@](-[H])(-[H])-[H])-[H])-[H]'],"['InChI=1S/C6H10O4/c1-3(5(7)8)4(2)6(9)10/h3-4H,1-2H3,(H,7,8)(H,9,10)/t3-,4+']",['KLZYRCVPDWTZLH-ZXZARUISSA-N']
meso23dimethylsuccinic_an->2an,5.36,"meso-2,3-dimethylsuccinic acid",doi.org/10.1039/JR9590002492,['[H]OC(=O)[C@@]([H])(C([H])([H])[H])[C@]([H])(C(=O)O[H])C([H])([H])[H]'],['[#8](-[#6](=[#8])-[#6@@](-[#6@](-[#6@](-[H])(-[H])-[H])(-[#6](-[#8]-[H])=[#8])-[H])(-[#6@](-[H])(-[H])-[H])-[H])-[H]'],"['InChI=1S/C6H10O4/c1-3(5(7)8)4(2)6(9)10/h3-4H,1-2H3,(H,7,8)(H,9,10)/t3-,4+']",['KLZYRCVPDWTZLH-ZXZARUISSA-N']
metacrylic_neut->an,4.66,methacrylic acid,Lange's handbook of chemistry,['[H]OC(=O)C(=C([H])[H])C([H])([H])[H]'],['[#6](=[#8])(-[#8]-[H])-[#6](=[#6](-[H])-[H])-[#6@@](-[H])(-[H])-[H]'],"['InChI=1S/C4H6O2/c1-3(2)4(5)6/h1H2,2H3,(H,5,6)']",['CERQOIWHTDAKMF-UHFFFAOYSA-N']
methanethiol_neut->an,10.7,methanethiol,Lange's handbook of chemistry,['[H]SC([H])([H])[H]'],['[H]-[#6@@](-[H])(-[H])-[#16]-[H]'],"['InChI=1S/CH4S/c1-2/h2H,1H3']",['LSDPWZHWYPCBBB-UHFFFAOYSA-N']
methanol_neut->an,15.54,methanol,DOI: 10.1021/acs.jpca.7b03907,['[H]OC([H])([H])[H]'],['[#8](-[H])-[#6@@](-[H])(-[H])-[H]'],"['InChI=1S/CH4O/c1-2/h2H,1H3']",['OKKJLVBELUTLKV-UHFFFAOYSA-N']
methionine_cation->neut,2.28,methionine,Lange's handbook of chemistry,['[H]C([H])([H])SC([H])([H])C([H])([H])[C@@]([H])(C(=O)[O-])[N+]([H])([H])[H]'],['[H]-[#7@@](-[H])(-[H])-[#6@](-[#6](=[#8])-[#8-])(-[#6@](-[#6@](-[H])(-[H])-[#16]-[#6@@](-[H])(-[H])-[H])(-[H])-[H])-[H]'],"['InChI=1S/C5H11NO2S/c1-9-3-2-4(6)5(7)8/h4H,2-3,6H2,1H3,(H,7,8)/t4-/m0/s1']",['FFEARJCKVFRZRR-BYPYZUCNSA-N']
methionine_neut->an,9.21,methionine,Lange's handbook of chemistry,['[H]C([H])([H])SC([H])([H])C([H])([H])[C@@]([H])(C(=O)[O-])[N+]([H])([H])[H]'],['[H]-[#7@@](-[H])(-[H])-[#6@](-[#6](=[#8])-[#8-])(-[#6@](-[#6@](-[H])(-[H])-[#16]-[#6@@](-[H])(-[H])-[H])(-[H])-[H])-[H]'],"['InChI=1S/C5H11NO2S/c1-9-3-2-4(6)5(7)8/h4H,2-3,6H2,1H3,(H,7,8)/t4-/m0/s1']",['FFEARJCKVFRZRR-BYPYZUCNSA-N']
methoxyacetic_neut->an,3.57,methoxyacetic acid,Lange's handbook of chemistry,['[H]OC(=O)C([H])([H])OC([H])([H])[H]'],['[#8](-[#6@@](-[#6](-[#8]-[H])=[#8])(-[H])-[H])-[#6@](-[H])(-[H])-[H]'],"['InChI=1S/C3H6O3/c1-6-2-3(4)5/h2H2,1H3,(H,4,5)']",['RMIODHQZRUFFFF-UHFFFAOYSA-N']
methoxyphenylphosphonic_neut->an,2.4,4-methoxyphenylphosphonic acid,Lange's handbook of chemistry,['[H]OP(=O)(O[H])c1c([H])c([H])c(OC([H])([H])[H])c([H])c1[H]'],['[#8](-[#15@](-[#8]-[H])(=[#8])-[#6]1:[#6](:[#6](:[#6](:[#6](:[#6]:1-[H])-[H])-[#8]-[#6@](-[H])(-[H])-[H])-[H])-[H])-[H]'],"['InChI=1S/C7H9O4P/c1-11-6-2-4-7(5-3-6)12(8,9)10/h2-5H,1H3,(H2,8,9,10)']",['SCMAYTUWDLAAAO-UHFFFAOYSA-N']
methoxyphenylphosphonic_an->2an,7.15,4-methoxyphenylphosphonic acid,Lange's handbook of chemistry,['[H]OP(=O)(O[H])c1c([H])c([H])c(OC([H])([H])[H])c([H])c1[H]'],['[#8](-[#15@](-[#8]-[H])(=[#8])-[#6]1:[#6](:[#6](:[#6](:[#6](:[#6]:1-[H])-[H])-[#8]-[#6@](-[H])(-[H])-[H])-[H])-[H])-[H]'],"['InChI=1S/C7H9O4P/c1-11-6-2-4-7(5-3-6)12(8,9)10/h2-5H,1H3,(H2,8,9,10)']",['SCMAYTUWDLAAAO-UHFFFAOYSA-N']
methylamine_cation->neut,10.62,trimethylamine,Lange's handbook of chemistry,['[H]N([H])C([H])([H])[H]'],['[#7](-[#6@@](-[H])(-[H])-[H])(-[H])-[H]'],"['InChI=1S/CH5N/c1-2/h2H2,1H3']",['BAVYZALUXZFZLV-UHFFFAOYSA-N']
methylazetidine_cation->neut,10.4,1-methylazetidine,10.1002/jcc.23068,['[H]C([H])([H])N1C([H])([H])C([H])([H])C1([H])[H]'],['[H]-[#6@@]1(-[#6@@](-[#6@@](-[H])(-[H])-[#7]-1-[#6@@](-[H])(-[H])-[H])(-[H])-[H])-[H]'],"['InChI=1S/C4H9N/c1-5-3-2-4-5/h2-4H2,1H3']",['WWYVZTLIFYLZFM-UHFFFAOYSA-N']
methylguanidine_cation->neut,13.4,methylguanidine,10.1002/jcc.23068,['[H]N([H])C(=NC([H])([H])[H])N([H])[H]'],['[#6](=[#7]-[#6@@](-[H])(-[H])-[H])(-[#7](-[H])-[H])-[#7](-[H])-[H]'],"['InChI=1S/C2H7N3/c1-5-2(3)4/h1H3,(H4,3,4,5)']",['CHJJGSNFBQVOTG-UHFFFAOYSA-N']
methylphosphinic_neut->an,3.08,methylphosphinic acid,Lange's handbook of chemistry,['[H+].[H]OP([O-])C([H])([H])[H]'],['[#15](-[#8]-[H])(-[#8-])-[#6@](-[H])(-[H])-[H].[H+]'],"['InChI=1S/CH4O2P/c1-4(2)3/h2H,1H3/q-1/p+1']",['LDXFLVVOTUIYFX-UHFFFAOYSA-O']
methylphosphonic_neut->an,2.38,methylphosphonic acid,Lange's handbook of chemistry,['[H]OP(=O)(O[H])C([H])([H])[H]'],['[#8](-[#15@](-[#8]-[H])(=[#8])-[#6@@](-[H])(-[H])-[H])-[H]'],"['InChI=1S/CH5O3P/c1-5(2,3)4/h1H3,(H2,2,3,4)']",['YACKEPLHDIMKIO-UHFFFAOYSA-N']
methylphosphonic_an->2an,7.74,methylphosphonic acid,Lange's handbook of chemistry,['[H]OP(=O)(O[H])C([H])([H])[H]'],['[#8](-[#15@](-[#8]-[H])(=[#8])-[#6@@](-[H])(-[H])-[H])-[H]'],"['InChI=1S/CH5O3P/c1-5(2,3)4/h1H3,(H2,2,3,4)']",['YACKEPLHDIMKIO-UHFFFAOYSA-N']
methylphosphoric_neut->an,1.54,methylphosphoric,https://pubs.acs.org/doi/abs/10.1021/ja01252a028,['[H]OP(=O)(O[H])OC([H])([H])[H]'],['[#8](-[#15@@](-[#8]-[#6@@](-[H])(-[H])-[H])(=[#8])-[#8]-[H])-[H]'],"['InChI=1S/CH5O4P/c1-5-6(2,3)4/h1H3,(H2,2,3,4)']",['CAAULPUQFIIOTL-UHFFFAOYSA-N']
methylphosphoric_an->2an,6.31,methylphosphoric,https://pubs.acs.org/doi/abs/10.1021/ja01252a028,['[H]OP(=O)(O[H])OC([H])([H])[H]'],['[#8](-[#15@@](-[#8]-[#6@@](-[H])(-[H])-[H])(=[#8])-[#8]-[H])-[H]'],"['InChI=1S/CH5O4P/c1-5-6(2,3)4/h1H3,(H2,2,3,4)']",['CAAULPUQFIIOTL-UHFFFAOYSA-N']
methylpiperidine_cation->neut,10.19,methylpiperidine,Lange's handbook of chemistry,['[H]C([H])([H])N1C([H])([H])C([H])([H])C([H])([H])C([H])([H])C1([H])[H]'],['[H]-[#6@]1(-[#6@@](-[#6@](-[#6@](-[#6@](-[H])(-[H])-[#7]-1-[#6@@](-[H])(-[H])-[H])(-[H])-[H])(-[H])-[H])(-[H])-[H])-[H]'],"['InChI=1S/C6H13N/c1-7-5-3-2-4-6-7/h2-6H2,1H3']",['PAMIQIKDUOTOBW-UHFFFAOYSA-N']
methylpyrrolidine_cation->neut,10.46,methylpyrrolidine,Lange's handbook of chemistry,['[H]C([H])([H])N1C([H])([H])C([H])([H])C([H])([H])C1([H])[H]'],['[H]-[#6@]1(-[#6@@](-[#6@@](-[#6@@](-[H])(-[H])-[#7]-1-[#6@@](-[H])(-[H])-[H])(-[H])-[H])(-[H])-[H])-[H]'],"['InChI=1S/C5H11N/c1-6-4-2-3-5-6/h2-5H2,1H3']",['AVFZOVWCLRSYKC-UHFFFAOYSA-N']
methylsulfonylacetic_neut->an,2.36,methylsulfonylacetic acid,Lange's handbook of chemistry,['[H]OC(=O)C([H])([H])S(=O)(=O)C([H])([H])[H]'],['[#8]=[#16@@](=[#8])(-[#6@](-[#6](-[#8]-[H])=[#8])(-[H])-[H])-[#6@@](-[H])(-[H])-[H]'],"['InChI=1S/C3H6O4S/c1-8(6,7)2-3(4)5/h2H2,1H3,(H,4,5)']",['NYEHUAQIJXERLP-UHFFFAOYSA-N']
methyltetrazole_neut->an,5.5,methyltetrazole,doi:10.1016/j.theochem.2003.10.019,"['[H]n1nnc(C([H])([H])[H])n1', '[H]n1nnnc1C([H])([H])[H]']","['[#7]1(:[#7]:[#6](:[#7]:[#7]:1)-[#6@@](-[H])(-[H])-[H])-[H]', '[#7]1:[#7](:[#6](:[#7]:[#7]:1)-[#6@@](-[H])(-[H])-[H])-[H]']","['InChI=1S/C2H4N4/c1-2-3-5-6-4-2/h1H3,(H,3,4,5,6)']",['XZGLNCKSNVGDNX-UHFFFAOYSA-N']
morphine_cation->neut,8.21,morphine,profiles of drug substances excipiends and related (A),['[H]Oc1c([H])c([H])c2c3c1O[C@]1([H])[C@]34C([H])([H])C([H])([H])N(C([H])([H])[H])[C@]([H])(C2([H])[H])[C@]4([H])C([H])=C([H])[C@]1([H])O[H]'],['[#8]1-[#6@@]2(-[#6@]34-[#6@](-[#6@](-[#7](-[#6@](-[#6@@]-3(-[H])-[H])(-[H])-[H])-[#6@](-[H])(-[H])-[H])(-[#6@](-[#6]3:[#6]-4:[#6]-1:[#6](-[#8]-[H]):[#6](:[#6]:3-[H])-[H])(-[H])-[H])-[H])(-[#6](=[#6](-[#6@@]-2(-[#8]-[H])-[H])-[H])-[H])-[H])-[H]'],"['InChI=1S/C17H19NO3/c1-18-7-6-17-10-3-5-13(20)16(17)21-15-12(19)4-2-9(14(15)17)8-11(10)18/h2-5,10-11,13,16,19-20H,6-8H2,1H3/t10-,11+,13-,16-,17-/m0/s1']",['BQJCRHHNABKAKU-KBQPJGBKSA-N']
morpholine_cation->neut,8.43,morpholine,Lange's handbook of chemistry,['[H]N1C([H])([H])C([H])([H])OC([H])([H])C1([H])[H]'],['[H]-[#6@@]1(-[#6@@](-[H])(-[H])-[#8]-[#6@@](-[#6@](-[H])(-[H])-[#7]-1-[H])(-[H])-[H])-[H]'],"['InChI=1S/C4H9NO/c1-3-6-4-2-5-1/h5H,1-4H2']",['YNAVUWVOSKDBBP-UHFFFAOYSA-N']
mphtalic_neut->an,3.7,m-phthalic acid,"K. P. Ang, J. PHys. Chem. 62, 1190, (1958).",['[H]OC(=O)c1c([H])c([H])c([H])c(C(=O)O[H])c1[H]'],['[#6]1(:[#6](:[#6](:[#6](:[#6](:[#6]:1-[H])-[H])-[H])-[#6](=[#8])-[#8]-[H])-[H])-[#6](=[#8])-[#8]-[H]'],"['InChI=1S/C8H6O4/c9-7(10)5-2-1-3-6(4-5)8(11)12/h1-4H,(H,9,10)(H,11,12)']",['QQVIHTHCMHWDBS-UHFFFAOYSA-N']
mphtalic_an->2an,4.6,m-phthalic acid,"K. P. Ang, J. PHys. Chem. 62, 1190, (1958).",['[H]OC(=O)c1c([H])c([H])c([H])c(C(=O)O[H])c1[H]'],['[#6]1(:[#6](:[#6](:[#6](:[#6](:[#6]:1-[H])-[H])-[H])-[#6](=[#8])-[#8]-[H])-[H])-[#6](=[#8])-[#8]-[H]'],"['InChI=1S/C8H6O4/c9-7(10)5-2-1-3-6(4-5)8(11)12/h1-4H,(H,9,10)(H,11,12)']",['QQVIHTHCMHWDBS-UHFFFAOYSA-N']
mthiocresol_neut->an,6.58,m-thiocresol,Lange's handbook of chemistry,['[H]Sc1c([H])c([H])c([H])c(C([H])([H])[H])c1[H]'],['[#16](-[#6]1:[#6](:[#6](:[#6](:[#6](:[#6]:1-[H])-[H])-[H])-[#6@@](-[H])(-[H])-[H])-[H])-[H]'],"['InChI=1S/C7H8S/c1-6-3-2-4-7(8)5-6/h2-5,8H,1H3']",['WRXOZRLZDJAYDR-UHFFFAOYSA-N']
mtoluidine_cation->neut,4.69,m-methylaniline,"physical chemistry an indian journal 2009, 4, 39-43",['[H]c1c([H])c(N([H])[H])c([H])c(C([H])([H])[H])c1[H]'],['[#6]1(:[#6](:[#6](:[#6](:[#6](:[#6]:1-[#7](-[H])-[H])-[H])-[H])-[H])-[#6@@](-[H])(-[H])-[H])-[H]'],"['InChI=1S/C7H9N/c1-6-3-2-4-7(8)5-6/h2-5H,8H2,1H3']",['JJYPMNFTHPTTDI-UHFFFAOYSA-N']
myosmine_cation->neut,5.26,myosmine,Lange's handbook of chemistry,['[H]c1nc([H])c(C2=NC([H])([H])C([H])([H])C2([H])[H])c([H])c1[H]'],['[#7]1=[#6](-[#6@@](-[#6@@](-[#6@@]-1(-[H])-[H])(-[H])-[H])(-[H])-[H])-[#6]1:[#6](:[#6](:[#6](:[#7]:[#6]:1-[H])-[H])-[H])-[H]'],"['InChI=1S/C9H10N2/c1-3-8(7-10-5-1)9-4-2-6-11-9/h1,3,5,7H,2,4,6H2']",['DPNGWXJMIILTBS-UHFFFAOYSA-N']
n2dimethylpiperidine_cation->neut,10.26,"1,2-dimethylpiperidine",10.1002/jcc.23068,['[H]C([H])([H])N1C([H])([H])C([H])([H])C([H])([H])C([H])([H])[C@]1([H])C([H])([H])[H]'],['[H]-[#6@@]1(-[#6@@](-[#6@@](-[#6@@](-[#6@@](-[H])(-[#7]-1-[#6@@](-[H])(-[H])-[H])-[#6@@](-[H])(-[H])-[H])(-[H])-[H])(-[H])-[H])(-[H])-[H])-[H]'],"['InChI=1S/C7H15N/c1-7-5-3-4-6-8(7)2/h7H,3-6H2,1-2H3/t7-/m0/s1']",['MWUISCCBFHLWLY-ZETCQYMHSA-N']
n2dimethylpyrrolidine_cation->neut,10.26,"1,2-dimethylpyrrolidine",10.1002/jcc.23068,['[H]C([H])([H])N1C([H])([H])C([H])([H])C([H])([H])[C@@]1([H])C([H])([H])[H]'],['[H]-[#6@]1(-[#6@@](-[#6@@](-[#6@@](-[H])(-[H])-[#7]-1-[#6@@](-[H])(-[H])-[H])(-[H])-[H])(-[H])-[H])-[#6@@](-[H])(-[H])-[H]'],"['InChI=1S/C6H13N/c1-6-4-3-5-7(6)2/h6H,3-5H2,1-2H3/t6-/m1/s1']",['PXHHIBMOFPCBJQ-ZCFIWIBFSA-N']
nacetylalanine_neut->an,3.72,n-acetylalanine,Lange's handbook of chemistry,['[H]OC(=O)[C@@]([H])(N([H])C(=O)C([H])([H])[H])C([H])([H])[H]'],['[#8](-[#6](=[#8])-[#6@@](-[#7](-[#6](=[#8])-[#6@@](-[H])(-[H])-[H])-[H])(-[#6@@](-[H])(-[H])-[H])-[H])-[H]'],"['InChI=1S/C5H9NO3/c1-3(5(8)9)6-4(2)7/h3H,1-2H3,(H,6,7)(H,8,9)/t3-/m0/s1']",['KTHDTJVBEPMMGL-VKHMYHEASA-N']
nacetylbalanine_neut->an,4.46,n-acetyl-b-alanine,Lange's handbook of chemistry,['[H]OC(=O)C([H])([H])C([H])([H])N([H])C(=O)C([H])([H])[H]'],['[#8](-[#6](=[#8])-[#6@@](-[#6@](-[#7](-[#6](=[#8])-[#6@@](-[H])(-[H])-[H])-[H])(-[H])-[H])(-[H])-[H])-[H]'],"['InChI=1S/C5H9NO3/c1-4(7)6-3-2-5(8)9/h2-3H2,1H3,(H,6,7)(H,8,9)']",['LJLLAWRMBZNPMO-UHFFFAOYSA-N']
nacetylpenicilamine_neut->an,9.9,n-acetylpenicillamine,10.1021/ja01094a025,['[H]OC(=O)[C@]([H])(N([H])C(=O)C([H])([H])[H])C(S[H])(C([H])([H])[H])C([H])([H])[H]'],['[#16](-[#6@](-[#6@@](-[#7](-[#6](=[#8])-[#6@@](-[H])(-[H])-[H])-[H])(-[#6](-[#8]-[H])=[#8])-[H])(-[#6@](-[H])(-[H])-[H])-[#6@@](-[H])(-[H])-[H])-[H]'],"['InChI=1S/C7H13NO3S/c1-4(9)8-5(6(10)11)7(2,3)12/h5,12H,1-3H3,(H,8,9)(H,10,11)/t5-/m0/s1']",['MNNBCKASUFBXCO-YFKPBYRVSA-N']
Nacetylglycine_neut->an,3.67,acetylglycine,Lange's handbook of chemistry,['[H]OC(=O)C([H])([H])N([H])C(=O)C([H])([H])[H]'],['[#8](-[#6](=[#8])-[#6@@](-[#7](-[#6](=[#8])-[#6@@](-[H])(-[H])-[H])-[H])(-[H])-[H])-[H]'],"['InChI=1S/C4H7NO3/c1-3(6)5-2-4(7)8/h2H2,1H3,(H,5,6)(H,7,8)']",['OKJIRPAQVSHGFK-UHFFFAOYSA-N']
nacetylimidazole_cation->neut,3.6,n-acetylimidazole,10.1002/jcc.23068,['[H]c1nc([H])n(C(=O)C([H])([H])[H])c1[H]'],['[#6]1(:[#6](-[H]):[#7]:[#6](:[#7]:1-[#6](=[#8])-[#6@@](-[H])(-[H])-[H])-[H])-[H]'],"['InChI=1S/C5H6N2O/c1-5(8)7-3-2-6-4-7/h2-4H,1H3']",['VIHYIVKEECZGOU-UHFFFAOYSA-N']
Nacetyltetrametylguanidine_cation->neut,9.1,n-acetyltetramethylguanidine,10.1002/jcc.23068,['[H]C([H])([H])/N=C(\\N(C(=O)C([H])([H])[H])C([H])([H])[H])N(C([H])([H])[H])C([H])([H])[H]'],['[#6](\\[#7](-[#6@@](-[H])(-[H])-[H])-[#6@@](-[H])(-[H])-[H])(-[#7](-[#6](=[#8])-[#6@@](-[H])(-[H])-[H])-[#6@@](-[H])(-[H])-[H])=[#7]/[#6@@](-[H])(-[H])-[H]'],['InChI=1S/C7H15N3O/c1-6(11)10(5)7(8-2)9(3)4/h1-5H3/b8-7-'],['QJUDOWTXDHATJE-FPLPWBNLSA-N']
Nacetyltrimetylguanidine_cation->neut,8.93,n-acetyltrimethylguanidine,10.1002/jcc.23068,['[H]N(/C(=N\\C([H])([H])[H])N(C(=O)C([H])([H])[H])C([H])([H])[H])C([H])([H])[H]'],['[#6](=[#7]/[#6@@](-[H])(-[H])-[H])(\\[#7](-[#6](=[#8])-[#6@@](-[H])(-[H])-[H])-[#6@@](-[H])(-[H])-[H])-[#7](-[#6@@](-[H])(-[H])-[H])-[H]'],"['InChI=1S/C6H13N3O/c1-5(10)9(4)6(7-2)8-3/h1-4H3,(H,7,8)']",['PNNPCOPWRAYSQX-UHFFFAOYSA-N']
naphtimidazole_cation->neut,5.16,naphthimidazole,https://doi.org/10.1016/S0065-2725(08)60162-2,['[H]c1c([H])c([H])c2c([H])c3c(nc([H])n3[H])c([H])c2c1[H]'],['[#6]1(:[#6](:[#6]2:[#6](:[#6](:[#6]:1-[H])-[H]):[#6](:[#6]1:[#6](:[#6]:2-[H]):[#7]:[#6](:[#7]:1-[H])-[H])-[H])-[H])-[H]'],"['InChI=1S/C11H8N2/c1-2-4-9-6-11-10(12-7-13-11)5-8(9)3-1/h1-7H,(H,12,13)']",['USYCQABRSUEURP-UHFFFAOYSA-N']