compn,pKa,correct name,reference,smiles,smarts,inchi,inchiKey
4tertbutylbenzoic_neut->an,4.39,4-tert-butylbenzoic acid,Lange's handbook of chemistry,['[H]OC(=O)c1c([H])c([H])c(C(C([H])([H])[H])(C([H])([H])[H])C([H])([H])[H])c([H])c1[H]'],['[#8](-[#6](=[#8])-[#6]1:[#6](:[#6](:[#6](-[#6@](-[#6@@](-[H])(-[H])-[H])(-[#6@@](-[H])(-[H])-[H])-[#6@@](-[H])(-[H])-[H]):[#6](:[#6]:1-[H])-[H])-[H])-[H])-[H]'],"['InChI=1S/C11H14O2/c1-11(2,3)9-6-4-8(5-7-9)10(12)13/h4-7H,1-3H3,(H,12,13)']",['KDVYCTOWXSLNNI-UHFFFAOYSA-N']
4tertbutylphenol_neut->an,10.23,4-tert-butylphenol,Lange's handbook of chemistry,['[H]Oc1c([H])c([H])c(C(C([H])([H])[H])(C([H])([H])[H])C([H])([H])[H])c([H])c1[H]'],['[#8](-[#6]1:[#6](:[#6](:[#6](-[#6@](-[#6@@](-[H])(-[H])-[H])(-[#6@@](-[H])(-[H])-[H])-[#6@@](-[H])(-[H])-[H]):[#6](:[#6]:1-[H])-[H])-[H])-[H])-[H]'],"['InChI=1S/C10H14O/c1-10(2,3)8-4-6-9(11)7-5-8/h4-7,11H,1-3H3']",['QHPQWRBYOIRBIT-UHFFFAOYSA-N']
4tertbutylpyridine_cation->neut,5.99,4-tert-butylpyridine,Lange's handbook of chemistry,['[H]c1nc([H])c([H])c(C(C([H])([H])[H])(C([H])([H])[H])C([H])([H])[H])c1[H]'],['[#6]1(:[#6](-[H]):[#7]:[#6](:[#6](:[#6]:1-[#6@@](-[#6@@](-[H])(-[H])-[H])(-[#6@@](-[H])(-[H])-[H])-[#6@@](-[H])(-[H])-[H])-[H])-[H])-[H]'],"['InChI=1S/C9H13N/c1-9(2,3)8-4-6-10-7-5-8/h4-7H,1-3H3']",['YSHMQTRICHYLGF-UHFFFAOYSA-N']
4tertbutylthiazole_cation->neut,3.04,4-tert-butylthiazole,Lange's handbook of chemistry,['[H]c1nc(C(C([H])([H])[H])(C([H])([H])[H])C([H])([H])[H])c([H])s1'],['[#16]1:[#6](:[#6](:[#7]:[#6]:1-[H])-[#6@](-[#6@@](-[H])(-[H])-[H])(-[#6@@](-[H])(-[H])-[H])-[#6@@](-[H])(-[H])-[H])-[H]'],"['InChI=1S/C7H11NS/c1-7(2,3)6-4-9-5-8-6/h4-5H,1-3H3']",['FNHWFALBBBUBGY-UHFFFAOYSA-N']
4trimethylsilylbenzoic_neut->an,4.19,4-trimethylsilylbenzoic acid,Lange's handbook of chemistry,['[H]OC(=O)c1c([H])c([H])c([Si](C([H])([H])[H])(C([H])([H])[H])C([H])([H])[H])c([H])c1[H]'],['[#8](-[#6](=[#8])-[#6]1:[#6](:[#6](:[#6](-[#14@](-[#6@@](-[H])(-[H])-[H])(-[#6@@](-[H])(-[H])-[H])-[#6@@](-[H])(-[H])-[H]):[#6](:[#6]:1-[H])-[H])-[H])-[H])-[H]'],"['InChI=1S/C10H14O2Si/c1-13(2,3)9-6-4-8(5-7-9)10(11)12/h4-7H,1-3H3,(H,11,12)']",['GKAWVRLBRQRXAG-UHFFFAOYSA-N']
4vinylpyridine_cation->neut,5.62,4-vinylpyridine,Lange's handbook of chemistry,['[H]C([H])=C([H])c1c([H])c([H])nc([H])c1[H]'],['[#7]1:[#6](:[#6](:[#6](:[#6](:[#6]:1-[H])-[H])-[#6](=[#6](-[H])-[H])-[H])-[H])-[H]'],"['InChI=1S/C7H7N/c1-2-7-3-5-8-6-4-7/h2-6H,1H2']",['KFDVPJUYSDEJTH-UHFFFAOYSA-N']
55dimethyl24dioxothiazolidin_neut->an,6.63,"5,5-dimethyl-1,3-thiazolidine-2,4-dione","G. KORTUM, W. VOGEL and K. ANDRUSSOW, DISSOCIATION CONSTANTS OF ORGANIC ACIDS IN AQUEOUS SOLUTION ",['[H]N1C(=O)SC(C([H])([H])[H])(C([H])([H])[H])C1=O'],['[#6]1(=[#8])-[#7](-[H])-[#6](-[#6@](-[#16]-1)(-[#6@@](-[H])(-[H])-[H])-[#6@@](-[H])(-[H])-[H])=[#8]'],"['InChI=1S/C5H7NO2S/c1-5(2)3(7)6-4(8)9-5/h1-2H3,(H,6,7,8)']",['UWXNEBLQDNYFMR-UHFFFAOYSA-N']
55dimethylhydantoin_neut->an,9.19,"5,5-dimethylhydantoin",Lange's handbook of chemistry,['[H]N1C(=O)N([H])C(C([H])([H])[H])(C([H])([H])[H])C1=O'],['[#8]=[#6]1-[#7](-[#6](=[#8])-[#7](-[#6@]-1(-[#6@@](-[H])(-[H])-[H])-[#6@@](-[H])(-[H])-[H])-[H])-[H]'],"['InChI=1S/C5H8N2O2/c1-5(2)3(8)6-4(9)7-5/h1-2H3,(H2,6,7,8,9)']",['YIROYDNZEPTFOL-UHFFFAOYSA-N']
5aminoisoquinoline_cation->neut,5.58,5-aminoisoquinoline,10.1002/jcc.23068,['[H]c1nc([H])c2c([H])c([H])c([H])c(N([H])[H])c2c1[H]'],['[#6]1(:[#6](:[#6]2:[#6](:[#6](:[#6]:1-[H])-[#7](-[H])-[H]):[#6](:[#6](-[H]):[#7]:[#6]:2-[H])-[H])-[H])-[H]'],"['InChI=1S/C9H8N2/c10-9-3-1-2-7-6-11-5-4-8(7)9/h1-6H,10H2']",['DTVYNUOOZIKEEX-UHFFFAOYSA-N']
5aminopyrimidine_cation->neut,2.6,5-aminopyrimidine,10.1002/jcc.23068,['[H]c1nc([H])c(N([H])[H])c([H])n1'],['[#6]1(-[H]):[#7]:[#6](:[#6](:[#6](-[H]):[#7]:1)-[#7](-[H])-[H])-[H]'],"['InChI=1S/C4H5N3/c5-4-1-6-3-7-2-4/h1-3H,5H2']",['FVLAYJRLBLHIPV-UHFFFAOYSA-N']
5aminoquinoline_cation->neut,5.46,5-aminoquinoline,Lange's handbook of chemistry,['[H]c1nc2c([H])c([H])c([H])c(N([H])[H])c2c([H])c1[H]'],['[#6]1(:[#6](:[#6]2:[#6](:[#6](:[#6]:1-[H])-[#7](-[H])-[H]):[#6](:[#6](:[#6](-[H]):[#7]:2)-[H])-[H])-[H])-[H]'],"['InChI=1S/C9H8N2/c10-8-4-1-5-9-7(8)3-2-6-11-9/h1-6H,10H2']",['XMIAFAKRAAMSGX-UHFFFAOYSA-N']
5aminosalicylic_cation->neut,2.74,5-aminosalicylic acid,"S. Fallab, W. Vogtli, M. Blumer, and H. Erlenmeyer. Helv. Chim. Acta 34, 26 (1951).","['[H]Oc1c([H])c([H])c([N+]([H])([H])[H])c([H])c1C(=O)[O-]', '[H]OC(=O)c1c([H])c(N([H])[H])c([H])c([H])c1O[H]']","['[#8](-[#6]1:[#6](:[#6](:[#6](-[#7@+](-[H])(-[H])-[H]):[#6](:[#6]:1-[H])-[H])-[H])-[#6](=[#8])-[#8-])-[H]', '[#8](-[#6]1:[#6](:[#6](:[#6](-[#7](-[H])-[H]):[#6](:[#6]:1-[H])-[H])-[H])-[#6](-[#8]-[H])=[#8])-[H]']","['InChI=1S/C7H7NO3/c8-4-1-2-6(9)5(3-4)7(10)11/h1-3,9H,8H2,(H,10,11)']",['KBOPZPXVLCULAV-UHFFFAOYSA-N']
5aminosalicylic_neut->an,5.84,5-aminosalicylic acid,"S. Fallab, W. Vogtli, M. Blumer, and H. Erlenmeyer. Helv. Chim. Acta 34, 26 (1951).","['[H]Oc1c([H])c([H])c([N+]([H])([H])[H])c([H])c1C(=O)[O-]', '[H]OC(=O)c1c([H])c(N([H])[H])c([H])c([H])c1O[H]']","['[#8](-[#6]1:[#6](:[#6](:[#6](-[#7@+](-[H])(-[H])-[H]):[#6](:[#6]:1-[H])-[H])-[H])-[#6](=[#8])-[#8-])-[H]', '[#8](-[#6]1:[#6](:[#6](:[#6](-[#7](-[H])-[H]):[#6](:[#6]:1-[H])-[H])-[H])-[#6](-[#8]-[H])=[#8])-[H]']","['InChI=1S/C7H7NO3/c8-4-1-2-6(9)5(3-4)7(10)11/h1-3,9H,8H2,(H,10,11)']",['KBOPZPXVLCULAV-UHFFFAOYSA-N']
5azaindole_cation->neut,8.3,5-azaindole,10.1007/s00894-018-3892-4,"['[H]c1nc([H])c2c([H])c([H])n([H])c2c1[H]', '[H]c1nc2c([H])c([H])n([H])c([H])c-2c1[H]']","['[#6]12:[#6](:[#6](:[#6](-[H]):[#7]:[#6]:1-[H])-[H]):[#7](:[#6](:[#6]:2-[H])-[H])-[H]', '[#6]12-[#6](:[#6](:[#6](-[H]):[#7](:[#6]:1-[H])-[H])-[H]):[#7]:[#6](:[#6]:2-[H])-[H]']","['InChI=1S/C7H6N2/c1-4-9-7-2-3-8-5-6(1)7/h1-5,9H', 'InChI=1S/C7H6N2/c1-4-9-7-2-3-8-5-6(1)7/h1-5,8H']","['SRSKXJVMVSSSHB-UHFFFAOYSA-N', 'HPKFJXKLVYQMDU-UHFFFAOYSA-N']"
5bromoquinoline_cation->neut,3.62,5-bromoquinoline,10.1002/jcc.23068,['[H]c1nc2c([H])c([H])c([H])c(Br)c2c([H])c1[H]'],['[#6]1(:[#6](:[#6]2:[#6](:[#6](:[#6]:1-[H])-[#35]):[#6](:[#6](:[#6](-[H]):[#7]:2)-[H])-[H])-[H])-[H]'],['InChI=1S/C9H6BrN/c10-8-4-1-5-9-7(8)3-2-6-11-9/h1-6H'],['CHODTZCXWXCALP-UHFFFAOYSA-N']
5chlorootoluidine_cation->neut,3.85,5-chloro-o-toluidine,Lange's handbook of chemistry,['[H]c1c([H])c(C([H])([H])[H])c(N([H])[H])c([H])c1Cl'],['[#6]1(:[#6](:[#6](:[#6](:[#6](:[#6]:1-[H])-[#17])-[H])-[#7](-[H])-[H])-[#6@@](-[H])(-[H])-[H])-[H]'],"['InChI=1S/C7H8ClN/c1-5-2-3-6(8)4-7(5)9/h2-4H,9H2,1H3']",['WRZOMWDJOLIVQP-UHFFFAOYSA-N']
5hydroxyisoquinoline_cation->neut,5.39,5-hydroxyisoquinoline,10.1002/jcc.23068,['[H]Oc1c([H])c([H])c([H])c2c([H])nc([H])c([H])c12'],['[#6]1(:[#6](:[#6]2:[#6](:[#6](:[#6]:1-[H])-[#8]-[H]):[#6](:[#6](-[H]):[#7]:[#6]:2-[H])-[H])-[H])-[H]'],"['InChI=1S/C9H7NO/c11-9-3-1-2-7-6-10-5-4-8(7)9/h1-6,11H']",['CSNXUYRHPXGSJD-UHFFFAOYSA-N']
5hydroxyquinoline_cation->neut,5.2,5-hydroxyquinoline,Lange's handbook of chemistry,"['[H]Oc1c([H])c([H])c([H])c2nc([H])c([H])c([H])c12', '[H]c1c([H])c2n([H])c([H])c([H])c([H])c-2c(=O)c1[H]']","['[#6]1(:[#6](:[#6]2:[#6](:[#6](:[#6]:1-[H])-[#8]-[H]):[#6](:[#6](:[#6](-[H]):[#7]:2)-[H])-[H])-[H])-[H]', '[#6]1(:[#6](:[#6]2-[#6](:[#6](:[#6]:1-[H])=[#8]):[#6](:[#6](:[#6](-[H]):[#7]:2-[H])-[H])-[H])-[H])-[H]']","['InChI=1S/C9H7NO/c11-9-5-1-4-8-7(9)3-2-6-10-8/h1-6,11H', 'InChI=1S/C9H7NO/c11-9-5-1-4-8-7(9)3-2-6-10-8/h1-6,10H']","['GYESAYHWISMZOK-UHFFFAOYSA-N', 'GVNQVWJYDXOLST-UHFFFAOYSA-N']"
5hydroxyquinoline_neut->an,8.54,5-hydroxyquinoline,Lange's handbook of chemistry,"['[H]Oc1c([H])c([H])c([H])c2nc([H])c([H])c([H])c12', '[H]c1c([H])c2n([H])c([H])c([H])c([H])c-2c(=O)c1[H]']","['[#6]1(:[#6](:[#6]2:[#6](:[#6](:[#6]:1-[H])-[#8]-[H]):[#6](:[#6](:[#6](-[H]):[#7]:2)-[H])-[H])-[H])-[H]', '[#6]1(:[#6](:[#6]2-[#6](:[#6](:[#6]:1-[H])=[#8]):[#6](:[#6](:[#6](-[H]):[#7]:2-[H])-[H])-[H])-[H])-[H]']","['InChI=1S/C9H7NO/c11-9-5-1-4-8-7(9)3-2-6-10-8/h1-6,11H', 'InChI=1S/C9H7NO/c11-9-5-1-4-8-7(9)3-2-6-10-8/h1-6,10H']","['GYESAYHWISMZOK-UHFFFAOYSA-N', 'GVNQVWJYDXOLST-UHFFFAOYSA-N']"
5methylquinazoline_cation->neut,2.31,5-methylquinazoline,pubs.rsc.org/en/content/articlepdf/1966/j2/j29660000436,['[H]c1nc([H])c2c(C([H])([H])[H])c([H])c([H])c([H])c2n1'],['[#6]1(:[#6](:[#6]2:[#6](:[#6](:[#6]:1-[H])-[H]):[#7]:[#6](-[H]):[#7]:[#6]:2-[H])-[#6@@](-[H])(-[H])-[H])-[H]'],"['InChI=1S/C9H8N2/c1-7-3-2-4-9-8(7)5-10-6-11-9/h2-6H,1H3']",['YNDGNDSFWJAXST-UHFFFAOYSA-N']
5methylquinoline_cation->neut,4.62,5-methylquinoline,Lange's handbook of chemistry,['[H]c1nc2c([H])c([H])c([H])c(C([H])([H])[H])c2c([H])c1[H]'],['[#7]1:[#6]2:[#6](:[#6](:[#6](:[#6](:[#6]:2-[H])-[H])-[H])-[#6@@](-[H])(-[H])-[H]):[#6](:[#6](:[#6]:1-[H])-[H])-[H]'],"['InChI=1S/C10H9N/c1-8-4-2-6-10-9(8)5-3-7-11-10/h2-7H,1H3']",['LMYVCXSKCQSIEQ-UHFFFAOYSA-N']
5methylthiazole_cation->neut,3.03,5-methylthiazole,Lange's handbook of chemistry,['[H]c1nc([H])c(C([H])([H])[H])s1'],['[#16]1:[#6](-[#6@@](-[H])(-[H])-[H]):[#6](:[#7]:[#6]:1-[H])-[H]'],"['InChI=1S/C4H5NS/c1-4-2-5-3-6-4/h2-3H,1H3']",['RLYUNPNLXMSXAX-UHFFFAOYSA-N']
5nitro110phenanthroline_cation->neut,3.23,"5-nitro-1,10-phenanthroline",Lange's handbook of chemistry,['[H]c1nc2c(c([H])c1[H])c([H])c([N+](=O)[O-])c1c([H])c([H])c([H])nc12'],['[#8]=[#7+](-[#8-])-[#6]1:[#6]2:[#6](:[#7]:[#6](:[#6](:[#6]:2-[H])-[H])-[H]):[#6]2:[#7]:[#6](:[#6](:[#6](:[#6]:2:[#6]:1-[H])-[H])-[H])-[H]'],['InChI=1S/C12H7N3O2/c16-15(17)10-7-8-3-1-5-13-11(8)12-9(10)4-2-6-14-12/h1-7H'],['PDDBTWXLNJNICS-UHFFFAOYSA-N']
5nitroindazole_cation->neut,-0.96,5-nitroindazole,10.1002/ejoc.201700749,"['[H]c1c([N+](=O)[O-])c([H])c2c([H])nn([H])c2c1[H]', '[H]c1c([N+](=O)[O-])c([H])c2c([H])n([H])nc2c1[H]']","['[#6]12:[#6](:[#6](:[#6](:[#6](:[#6]:1-[H])-[#7+](=[#8])-[#8-])-[H])-[H]):[#7](:[#7]:[#6]:2-[H])-[H]', '[#6]12:[#6](:[#6](:[#6](:[#6](:[#6]:1-[H])-[#7+](=[#8])-[#8-])-[H])-[H]):[#7]:[#7](:[#6]:2-[H])-[H]']","['InChI=1S/C7H5N3O2/c11-10(12)6-1-2-7-5(3-6)4-8-9-7/h1-4H,(H,8,9)']",['WSGURAYTCUVDQL-UHFFFAOYSA-N']
5nitroisoquinoline_cation->neut,3.51,5-nitroisoquinoline,10.1002/jcc.23068,['[H]c1nc([H])c2c([H])c([H])c([H])c([N+](=O)[O-])c2c1[H]'],['[#6]1(:[#6](:[#6]2:[#6](:[#6](:[#6]:1-[H])-[#7+](=[#8])-[#8-]):[#6](:[#6](-[H]):[#7]:[#6]:2-[H])-[H])-[H])-[H]'],['InChI=1S/C9H6N2O2/c12-11(13)9-3-1-2-7-6-10-5-4-8(7)9/h1-6H'],['PYGMPFQCCWBTJQ-UHFFFAOYSA-N']
5phenylimidazole_cation->neut,6.05,5-phenylimidazole,10.1002/jcc.23068,"['[H]c1c([H])c([H])c(-c2nc([H])n([H])c2[H])c([H])c1[H]', '[H]c1nc([H])n([H])c1-c1c([H])c([H])c([H])c([H])c1[H]']","['[#6]1(:[#6](-[H]):[#7](:[#6](:[#7]:1)-[H])-[H])-[#6]1:[#6](:[#6](:[#6](:[#6](:[#6]:1-[H])-[H])-[H])-[H])-[H]', '[#6]1(:[#6](-[H]):[#7]:[#6](:[#7]:1-[H])-[H])-[#6]1:[#6](:[#6](:[#6](:[#6](:[#6]:1-[H])-[H])-[H])-[H])-[H]']","['InChI=1S/C9H8N2/c1-2-4-8(5-3-1)9-6-10-7-11-9/h1-7H,(H,10,11)']",['XHLKOHSAWQPOFO-UHFFFAOYSA-N']
6aminoisoquinoline_cation->neut,7.16,6-aminoisoquinoline,10.1002/jcc.23068,['[H]c1nc([H])c2c([H])c([H])c(N([H])[H])c([H])c2c1[H]'],['[#6]1(:[#6](:[#6]2:[#6](:[#6](:[#6]:1-[#7](-[H])-[H])-[H]):[#6](:[#6](-[H]):[#7]:[#6]:2-[H])-[H])-[H])-[H]'],"['InChI=1S/C9H8N2/c10-9-2-1-8-6-11-4-3-7(8)5-9/h1-6H,10H2']",['NGFCTYXFMDWFRQ-UHFFFAOYSA-N']
6aminophenanthridine_cation->neut,7.07,6-aminophenanthridine,10.1002/jcc.23068,['[H]c1c([H])c([H])c2c(nc(N([H])[H])c3c([H])c([H])c([H])c([H])c32)c1[H]'],['[#6]1(:[#6](:[#6]2:[#6](:[#6](:[#6]:1-[H])-[H]):[#6]1:[#6](:[#6](:[#7]:2)-[#7](-[H])-[H]):[#6](-[H]):[#6](:[#6](:[#6]:1-[H])-[H])-[H])-[H])-[H]'],"['InChI=1S/C13H10N2/c14-13-11-7-2-1-5-9(11)10-6-3-4-8-12(10)15-13/h1-8H,(H2,14,15)']",['FVCXJXKLDUJOFA-UHFFFAOYSA-N']
6aminoquinoline_cation->neut,5.63,6 aminoquinoline,Lange's handbook of chemistry,['[H]c1nc2c([H])c([H])c(N([H])[H])c([H])c2c([H])c1[H]'],['[#6]1(:[#6](:[#6]2:[#6](:[#6](:[#6]:1-[#7](-[H])-[H])-[H]):[#6](:[#6](:[#6](-[H]):[#7]:2)-[H])-[H])-[H])-[H]'],"['InChI=1S/C9H8N2/c10-8-3-4-9-7(6-8)2-1-5-11-9/h1-6H,10H2']",['RJSRSRITMWVIQT-UHFFFAOYSA-N']
6azaindole_cation->neut,7.9,6-azaindole,10.1007/s00894-018-3892-4,"['[H]c1nc2c([H])n([H])c([H])c([H])c-2c1[H]', '[H]c1nc([H])c2c(c1[H])c([H])c([H])n2[H]']","['[#6]12-[#6](:[#6](-[H]):[#7](:[#6](:[#6]:1-[H])-[H])-[H]):[#7]:[#6](:[#6]:2-[H])-[H]', '[#6]12:[#6](:[#6](-[H]):[#7]:[#6](:[#6]:1-[H])-[H]):[#7](:[#6](:[#6]:2-[H])-[H])-[H]']","['InChI=1S/C7H6N2/c1-3-8-5-7-6(1)2-4-9-7/h1-5,8H', 'InChI=1S/C7H6N2/c1-3-8-5-7-6(1)2-4-9-7/h1-5,9H']","['BBEKYRDBWZFBOH-UHFFFAOYSA-N', 'XLKDJOPOOHHZAN-UHFFFAOYSA-N']"
6chlorootoluidine_cation->neut,2.22,6-chloro-o-toluidine,10.1021/jp022664w,['[H]c1c([H])c(Cl)c(N([H])[H])c(C([H])([H])[H])c1[H]'],['[#6]1(:[#6](:[#6](:[#6](:[#6](:[#6]:1-[H])-[H])-[#17])-[#7](-[H])-[H])-[#6@@](-[H])(-[H])-[H])-[H]'],"['InChI=1S/C7H8ClN/c1-5-3-2-4-6(8)7(5)9/h2-4H,9H2,1H3']",['WFNLHDJJZSJARK-UHFFFAOYSA-N']
6chloroquinoline_cation->neut,4,6-chloroquinoline,10.1002/jcc.23068,['[H]c1nc2c([H])c([H])c(Cl)c([H])c2c([H])c1[H]'],['[#6]1(:[#6](:[#6]2:[#6](:[#6](:[#6]:1-[H])-[H]):[#7]:[#6](:[#6](:[#6]:2-[H])-[H])-[H])-[H])-[#17]'],['InChI=1S/C9H6ClN/c10-8-3-4-9-7(6-8)2-1-5-11-9/h1-6H'],['GKJSZXGYFJBYRQ-UHFFFAOYSA-N']
6hydroxyisoquinoline_cation->neut,5.84,6-hydroxyisoquinoline,10.1002/jcc.23068,"['[H]Oc1c([H])c([H])c2c([H])nc([H])c([H])c2c1[H]', '[H]c1c2c([H])n([H])c([H])c([H])c-2c([H])c(=O)c1[H]']","['[#6]1(:[#6](:[#6]2:[#6](:[#6](:[#6]:1-[#8]-[H])-[H]):[#6](:[#6](-[H]):[#7]:[#6]:2-[H])-[H])-[H])-[H]', '[#6]1(:[#6](:[#6]2-[#6](:[#6](:[#6]:1=[#8])-[H]):[#6](:[#6](-[H]):[#7](:[#6]:2-[H])-[H])-[H])-[H])-[H]']","['InChI=1S/C9H7NO/c11-9-2-1-8-6-10-4-3-7(8)5-9/h1-6,11H', 'InChI=1S/C9H7NO/c11-9-2-1-8-6-10-4-3-7(8)5-9/h1-6,10H']","['GPVPDRHTRGTSIH-UHFFFAOYSA-N', 'BZHZTGBNJATAGG-UHFFFAOYSA-N']"
6hydroxyquinoline_cation->neut,5.17,6-hydroxyquinoline,Lange's handbook of chemistry,"['[H]c1c([O-])c([H])c2c([H])c([H])c([H])[n+]([H])c2c1[H]', '[H]Oc1c([H])c([H])c2nc([H])c([H])c([H])c2c1[H]']","['[#6]1(:[#6](:[#6]2:[#6](:[#6](:[#6]:1-[#8-])-[H]):[#6](:[#6](:[#6](-[H]):[#7+]:2-[H])-[H])-[H])-[H])-[H]', '[#6]1(:[#6](:[#6]2:[#6](:[#6](:[#6]:1-[#8]-[H])-[H]):[#6](:[#6](:[#6](-[H]):[#7]:2)-[H])-[H])-[H])-[H]']","['InChI=1S/C9H7NO/c11-8-3-4-9-7(6-8)2-1-5-10-9/h1-6,11H']",['OVYWMEWYEJLIER-UHFFFAOYSA-N']
6hydroxyquinoline_neut->an,8.88,6-hydroxyquinoline,Lange's handbook of chemistry,"['[H]c1c([O-])c([H])c2c([H])c([H])c([H])[n+]([H])c2c1[H]', '[H]Oc1c([H])c([H])c2nc([H])c([H])c([H])c2c1[H]']","['[#6]1(:[#6](:[#6]2:[#6](:[#6](:[#6]:1-[#8-])-[H]):[#6](:[#6](:[#6](-[H]):[#7+]:2-[H])-[H])-[H])-[H])-[H]', '[#6]1(:[#6](:[#6]2:[#6](:[#6](:[#6]:1-[#8]-[H])-[H]):[#6](:[#6](:[#6](-[H]):[#7]:2)-[H])-[H])-[H])-[H]']","['InChI=1S/C9H7NO/c11-8-3-4-9-7(6-8)2-1-5-10-9/h1-6,11H']",['OVYWMEWYEJLIER-UHFFFAOYSA-N']
6methoxyquinoline_cation->neut,5.03,6-methoxyquinoline,10.1002/jcc.23068,['[H]c1nc2c([H])c([H])c(OC([H])([H])[H])c([H])c2c([H])c1[H]'],['[#6]1(:[#6](:[#6]2:[#6](:[#6](:[#6]:1-[H])-[H]):[#7]:[#6](:[#6](:[#6]:2-[H])-[H])-[H])-[H])-[#8]-[#6@@](-[H])(-[H])-[H]'],"['InChI=1S/C10H9NO/c1-12-9-4-5-10-8(7-9)3-2-6-11-10/h2-7H,1H3']",['HFDLDPJYCIEXJP-UHFFFAOYSA-N']
6methylquinazoline_cation->neut,2.16,6-methylquinazoline,pubs.rsc.org/en/content/articlepdf/1966/j2/j29660000436,['[H]c1nc([H])c2c([H])c(C([H])([H])[H])c([H])c([H])c2n1'],['[#6]1(:[#6](:[#6]2:[#6](:[#6](:[#6]:1-[H])-[H]):[#7]:[#6](-[H]):[#7]:[#6]:2-[H])-[H])-[#6@@](-[H])(-[H])-[H]'],"['InChI=1S/C9H8N2/c1-7-2-3-9-8(4-7)5-10-6-11-9/h2-6H,1H3']",['LYMQTLGEUGQDKU-UHFFFAOYSA-N']
6methylquinoline_cation->neut,5.1,6-methylquinoline,10.1002/jcc.23068,['[H]c1nc2c([H])c([H])c(C([H])([H])[H])c([H])c2c([H])c1[H]'],['[#6]1(:[#6](:[#6]2:[#6](:[#6](:[#6]:1-[H])-[H]):[#7]:[#6](:[#6](:[#6]:2-[H])-[H])-[H])-[H])-[#6@@](-[H])(-[H])-[H]'],"['InChI=1S/C10H9N/c1-8-4-5-10-9(7-8)3-2-6-11-10/h2-7H,1H3']",['LUYISICIYVKBTA-UHFFFAOYSA-N']
6nitroindazole_cation->neut,-0.97,6-nitroindazole,10.1002/ejoc.201700749,"['[H]c1c([N+](=O)[O-])c([H])c2c(c([H])nn2[H])c1[H]', '[H]c1c([N+](=O)[O-])c([H])c2nn([H])c([H])c2c1[H]']","['[#6]12:[#6](:[#6](:[#6](:[#6](:[#6]:1-[H])-[H])-[#7+](=[#8])-[#8-])-[H]):[#7](:[#7]:[#6]:2-[H])-[H]', '[#6]12:[#6](:[#6](:[#6](:[#6](:[#6]:1-[H])-[H])-[#7+](=[#8])-[#8-])-[H]):[#7]:[#7](:[#6]:2-[H])-[H]']","['InChI=1S/C7H5N3O2/c11-10(12)6-2-1-5-4-8-9-7(5)3-6/h1-4H,(H,8,9)']",['ORZRMRUXSPNQQL-UHFFFAOYSA-N']
6nitroisoquinoline_cation->neut,3.45,6-nitroisoquinoline,10.1002/jcc.23068,['[H]c1nc([H])c2c([H])c([H])c([N+](=O)[O-])c([H])c2c1[H]'],['[#6]1(:[#6](:[#6]2:[#6](:[#6](:[#6]:1-[H])-[H]):[#6](-[H]):[#7]:[#6](:[#6]:2-[H])-[H])-[H])-[#7+](=[#8])-[#8-]'],['InChI=1S/C9H6N2O2/c12-11(13)9-2-1-8-6-10-4-3-7(8)5-9/h1-6H'],['TWQCVIUEUQDOEH-UHFFFAOYSA-N']
7-aza-benzotriazoleoxime_neut->an,4.65,7-aza-1-hydroxybenzotriazole,"J.Chem.Soc.Pak., Vol. 33, No. 3, 2011, 324-332","['[H]C1=[N+]=C2C(=NN([H])N2[O-])C([H])=C1[H]', '[H]c1nc2c(c([H])c1[H])[n+]([H])nn2[O-]', '[H]On1nnc2c([H])c([H])c([H])nc21']","['[#6]12-[#6](-[#6](=[#6](-[#6](-[H])=[#7+]=1)-[H])-[H])=[#7]-[#7](-[#7]-2-[#8-])-[H]', '[#6]12:[#6](:[#6](:[#6](:[#6](-[H]):[#7]:1)-[H])-[H]):[#7+](:[#7]:[#7]:2-[#8-])-[H]', '[#6]12:[#6](:[#6](:[#6](:[#6](-[H]):[#7]:1)-[H])-[H]):[#7]:[#7]:[#7]:2-[#8]-[H]']","['InChI=1S/C5H3N4O/c10-9-5-4(7-8-9)2-1-3-6-5/h1-3H/q-1/p+1', 'InChI=1S/C5H4N4O/c10-9-5-4(7-8-9)2-1-3-6-5/h1-3,10H']","['MWRKYGXNWYVVDB-UHFFFAOYSA-O', 'FPIRBHDGWMWJEP-UHFFFAOYSA-N']"
7aminoisoquinoline_cation->neut,6.19,7-aminoisoquinoline,10.1002/jcc.23068,['[H]c1nc([H])c2c([H])c(N([H])[H])c([H])c([H])c2c1[H]'],['[#6]1(:[#6](:[#6]2:[#6](:[#6](:[#6]:1-[H])-[H]):[#6](:[#6](-[H]):[#7]:[#6]:2-[H])-[H])-[H])-[#7](-[H])-[H]'],"['InChI=1S/C9H8N2/c10-9-2-1-7-3-4-11-6-8(7)5-9/h1-6H,10H2']",['DRGUQIQEUWFBDE-UHFFFAOYSA-N']
7aminoquinoline_cation->neut,6.63,7-aminoquinoline,10.1002/jcc.23068,['[H]c1nc2c([H])c(N([H])[H])c([H])c([H])c2c([H])c1[H]'],['[#6]1(:[#6](:[#6]2:[#6](:[#6](:[#6]:1-[H])-[H]):[#6](:[#6](:[#6](-[H]):[#7]:2)-[H])-[H])-[H])-[#7](-[H])-[H]'],"['InChI=1S/C9H8N2/c10-8-4-3-7-2-1-5-11-9(7)6-8/h1-6H,10H2']",['RZAUIOKDXQWSQE-UHFFFAOYSA-N']
7azaindole_cation->neut,4.6,7-azaindole,10.1007/s00894-018-3892-4,"['[H]c1nc2n([H])c([H])c([H])c([H])c-2c1[H]', '[H]c1nc2c(c([H])c1[H])c([H])c([H])n2[H]']","['[#6]12-[#6](:[#7]:[#6](:[#6]:1-[H])-[H]):[#7](:[#6](:[#6](:[#6]:2-[H])-[H])-[H])-[H]', '[#6]12:[#6](:[#7](:[#6](:[#6]:1-[H])-[H])-[H]):[#7]:[#6](:[#6](:[#6]:2-[H])-[H])-[H]']","['InChI=1S/C7H6N2/c1-2-6-3-5-9-7(6)8-4-1/h1-5H,(H,8,9)']",['MVXVYAKCVDQRLW-UHFFFAOYSA-N']
7chloroquinoline_cation->neut,3.85,7-chloroquinoline,10.1002/jcc.23068,['[H]c1nc2c([H])c(Cl)c([H])c([H])c2c([H])c1[H]'],['[#6]1(:[#6](:[#6]2:[#6](:[#6](:[#6]:1-[#17])-[H]):[#7]:[#6](:[#6](:[#6]:2-[H])-[H])-[H])-[H])-[H]'],['InChI=1S/C9H6ClN/c10-8-4-3-7-2-1-5-11-9(7)6-8/h1-6H'],['QNGUPQRODVPRDC-UHFFFAOYSA-N']
7hydroxyisoquinoline_cation->neut,5.69,7-hydroxyisoquinoline,10.1002/jcc.23068,['[H]Oc1c([H])c([H])c2c([H])c([H])nc([H])c2c1[H]'],['[#6]1(:[#6](:[#6]2:[#6](:[#6](:[#6]:1-[H])-[H]):[#6](:[#6](-[H]):[#7]:[#6]:2-[H])-[H])-[H])-[#8]-[H]'],"['InChI=1S/C9H7NO/c11-9-2-1-7-3-4-10-6-8(7)5-9/h1-6,11H']",['WCRKBMABEPCYII-UHFFFAOYSA-N']
7hydroxyquinoline_cation->neut,5.48,7-hydroxyquinoline,Lange's handbook of chemistry,"['[H]Oc1c([H])c([H])c2c([H])c([H])c([H])nc2c1[H]', '[H]c1c([H])c([H])n([H])c2c([H])c(=O)c([H])c([H])c1-2']","['[#6]1(:[#6](:[#6]2:[#6](:[#6](:[#6]:1-[H])-[H]):[#6](:[#6](:[#6](-[H]):[#7]:2)-[H])-[H])-[H])-[#8]-[H]', '[#6]1(:[#6](:[#6]2-[#6](:[#6](:[#6]:1-[H])-[H]):[#6](:[#6](:[#6](-[H]):[#7]:2-[H])-[H])-[H])-[H])=[#8]']","['InChI=1S/C9H7NO/c11-8-4-3-7-2-1-5-10-9(7)6-8/h1-6,11H', 'InChI=1S/C9H7NO/c11-8-4-3-7-2-1-5-10-9(7)6-8/h1-6,10H']","['XCRPPAPDRUBKRJ-UHFFFAOYSA-N', 'QUUFTOGCVYWGNK-UHFFFAOYSA-N']"