compn,pKa,correct name,reference,smiles,smarts,inchi,inchiKey
benzoylecgonine_neut->an,10.14,benzoylecgonine,https://www.academia.edu/105569852/Rapid_analysis_of_benzoylecgonine_cocaine_and_cocaethylene_in_urine_serum_and_saliva_by_isocratic_high_performance_liquid_chromatography_with_diode_array_detection,['[H]c1c([H])c([H])c(C(=O)O[C@@]2([H])C([H])([H])[C@]3([H])C([H])([H])C([H])([H])[C@]([H])([C@@]2([H])C(=O)[O-])[N@@+]3([H])C([H])([H])[H])c([H])c1[H]'],['[#8](-[#6@@]1(-[#6@@](-[#6@@]2(-[#7@+](-[#6@@](-[#6@](-[#6@@]-2(-[H])-[H])(-[H])-[H])(-[#6@@]-1(-[H])-[H])-[H])(-[#6@](-[H])(-[H])-[H])-[H])-[H])(-[#6](=[#8])-[#8-])-[H])-[H])-[#6](=[#8])-[#6]1:[#6](:[#6](:[#6](:[#6](:[#6]:1-[H])-[H])-[H])-[H])-[H]'],"['InChI=1S/C16H19NO4/c1-17-11-7-8-12(17)14(15(18)19)13(9-11)21-16(20)10-5-3-2-4-6-10/h2-6,11-14H,7-9H2,1H3,(H,18,19)/t11-,12+,13-,14+/m0/s1']",['GVGYEFKIHJTNQZ-RFQIPJPRSA-N']
penicilinG_neut->an,2.73,penicilin G,profiles of drug substances excipiends and related (A),['[H]OC(=O)[C@]1([H])N2C(=O)[C@@]([H])(N([H])C(=O)C([H])([H])c3c([H])c([H])c([H])c([H])c3[H])[C@@]2([H])SC1(C([H])([H])[H])C([H])([H])[H]'],['[#16]1-[#6@]2(-[#7](-[#6@](-[#6@]-1(-[#6@@](-[H])(-[H])-[H])-[#6@@](-[H])(-[H])-[H])(-[#6](-[#8]-[H])=[#8])-[H])-[#6](=[#8])-[#6@]-2(-[#7](-[#6](=[#8])-[#6@@](-[#6]1:[#6](:[#6](:[#6](:[#6](:[#6]:1-[H])-[H])-[H])-[H])-[H])(-[H])-[H])-[H])-[H])-[H]'],"['InChI=1S/C16H18N2O4S/c1-16(2)12(15(21)22)18-13(20)11(14(18)23-16)17-10(19)8-9-6-4-3-5-7-9/h3-7,11-12,14H,8H2,1-2H3,(H,17,19)(H,21,22)/t11-,12+,14-/m1/s1']",['JGSARLDLIJGVTE-MBNYWOFBSA-N']
ampicilin_cation->neut,2.53,ampicilin,profiles of drug substances excipiends and related (A),['[H]c1c([H])c([H])c([C@]([H])(C(=O)N([H])[C@]2([H])C(=O)N3[C@]2([H])SC(C([H])([H])[H])(C([H])([H])[H])[C@]3([H])C(=O)[O-])[N+]([H])([H])[H])c([H])c1[H]'],['[#16]1-[#6@]2(-[#7](-[#6@](-[#6@]-1(-[#6@@](-[H])(-[H])-[H])-[#6@@](-[H])(-[H])-[H])(-[#6](=[#8])-[#8-])-[H])-[#6](=[#8])-[#6@]-2(-[#7](-[#6](=[#8])-[#6@](-[#7@+](-[H])(-[H])-[H])(-[#6]1:[#6](:[#6](:[#6](:[#6](:[#6]:1-[H])-[H])-[H])-[H])-[H])-[H])-[H])-[H])-[H]'],"['InChI=1S/C16H19N3O4S/c1-16(2)11(15(22)23)19-13(21)10(14(19)24-16)18-12(20)9(17)8-6-4-3-5-7-8/h3-7,9-11,14H,17H2,1-2H3,(H,18,20)(H,22,23)/t9-,10-,11+,14-/m1/s1']",['AVKUERGKIZMTKX-NJBDSQKTSA-N']
ampicilin_neut->an,7.24,ampicilin,profiles of drug substances excipiends and related (A),['[H]c1c([H])c([H])c([C@]([H])(C(=O)N([H])[C@]2([H])C(=O)N3[C@]2([H])SC(C([H])([H])[H])(C([H])([H])[H])[C@]3([H])C(=O)[O-])[N+]([H])([H])[H])c([H])c1[H]'],['[#16]1-[#6@]2(-[#7](-[#6@](-[#6@]-1(-[#6@@](-[H])(-[H])-[H])-[#6@@](-[H])(-[H])-[H])(-[#6](=[#8])-[#8-])-[H])-[#6](=[#8])-[#6@]-2(-[#7](-[#6](=[#8])-[#6@](-[#7@+](-[H])(-[H])-[H])(-[#6]1:[#6](:[#6](:[#6](:[#6](:[#6]:1-[H])-[H])-[H])-[H])-[H])-[H])-[H])-[H])-[H]'],"['InChI=1S/C16H19N3O4S/c1-16(2)11(15(22)23)19-13(21)10(14(19)24-16)18-12(20)9(17)8-6-4-3-5-7-8/h3-7,9-11,14H,17H2,1-2H3,(H,18,20)(H,22,23)/t9-,10-,11+,14-/m1/s1']",['AVKUERGKIZMTKX-NJBDSQKTSA-N']
ascorbic_neut->an,4.05,ascorbic acid,profiles of drug substances excipiends and related (A),['[H]OC1=C(O[H])[C@@]([H])([C@@]([H])(O[H])C([H])([H])O[H])OC1=O'],['[#8]1-[#6@](-[#6@@](-[#8]-[H])(-[#6@@](-[#8]-[H])(-[H])-[H])-[H])(-[#6](-[#8]-[H])=[#6](-[#8]-[H])-[#6]-1=[#8])-[H]'],"['InChI=1S/C6H8O6/c7-1-2(8)5-3(9)4(10)6(11)12-5/h2,5,7-10H,1H2/t2-,5+/m0/s1']",['CIWBSHSKHKDKBQ-JLAZNSOCSA-N']
ascorbic_an->2an,11.62,ascorbic acid,profiles of drug substances excipiends and related (A),['[H]OC1=C(O[H])[C@@]([H])([C@@]([H])(O[H])C([H])([H])O[H])OC1=O'],['[#8]1-[#6@](-[#6@@](-[#8]-[H])(-[#6@@](-[#8]-[H])(-[H])-[H])-[H])(-[#6](-[#8]-[H])=[#6](-[#8]-[H])-[#6]-1=[#8])-[H]'],"['InChI=1S/C6H8O6/c7-1-2(8)5-3(9)4(10)6(11)12-5/h2,5,7-10H,1H2/t2-,5+/m0/s1']",['CIWBSHSKHKDKBQ-JLAZNSOCSA-N']
allobarbital_neut->an,7.81,allobarbital,profiles of drug substances excipiends and related (A),['[H]C([H])=C([H])C([H])([H])C1(C([H])([H])C([H])=C([H])[H])C(=O)N([H])C(=O)N([H])C1=O'],['[#8]=[#6]1-[#7](-[#6](=[#8])-[#7](-[#6](=[#8])-[#6@]-1(-[#6@](-[#6](=[#6](-[H])-[H])-[H])(-[H])-[H])-[#6@](-[#6](=[#6](-[H])-[H])-[H])(-[H])-[H])-[H])-[H]'],"['InChI=1S/C10H12N2O3/c1-3-5-10(6-4-2)7(13)11-9(15)12-8(10)14/h3-4H,1-2,5-6H2,(H2,11,12,13,14,15)']",['FDQGNLOWMMVRQL-UHFFFAOYSA-N']
2benzenesulfonylamidopyrimidine_neut->an,5.91,2-benzenesulfonilamidopyrimidine,profiles of drug substances excipiends and related (U),['[H]c1nc(N([H])S(=O)(=O)c2c([H])c([H])c([H])c([H])c2[H])nc([H])c1[H]'],['[#8]=[#16@@](=[#8])(-[#7](-[#6]1:[#7]:[#6](:[#6](:[#6](:[#7]:1)-[H])-[H])-[H])-[H])-[#6]1:[#6](:[#6](:[#6](:[#6](:[#6]:1-[H])-[H])-[H])-[H])-[H]'],"['InChI=1S/C10H9N3O2S/c14-16(15,9-5-2-1-3-6-9)13-10-11-7-4-8-12-10/h1-8H,(H,11,12,13)']",['HLBLNLYCFFWMFF-UHFFFAOYSA-N']
8bromotheophyline_neut->an,5.45,8-bromotheophyline,profiles of drug substances excipiends and related (U),['[H]n1c(Br)nc2c1c(=O)n(C([H])([H])[H])c(=O)n2C([H])([H])[H]'],['[#35]-[#6]1:[#7](:[#6]2:[#6](:[#7](:[#6](=[#8]):[#7](:[#6]:2=[#8])-[#6@](-[H])(-[H])-[H])-[#6@](-[H])(-[H])-[H]):[#7]:1)-[H]'],"['InChI=1S/C7H7BrN4O2/c1-11-4-3(9-6(8)10-4)5(13)12(2)7(11)14/h1-2H3,(H,9,10)']",['SKTFQHRVFFOHTQ-UHFFFAOYSA-N']
camptothecin_cation->neut,1.18,camptothecin,profiles of drug substances excipiends and related (U),['[H]O[C@]1(C([H])([H])C([H])([H])[H])C(=O)OC([H])([H])c2c1c([H])c1n(c2=O)C([H])([H])c2c-1nc1c([H])c([H])c([H])c([H])c1c2[H]'],['[#8]1-[#6@](-[#6]2:[#6](-[#6@@](-[#8]-[H])(-[#6@](-[#6@@](-[H])(-[H])-[H])(-[H])-[H])-[#6]-1=[#8]):[#6](:[#6]1:[#7](-[#6@](-[#6]3:[#6]-1:[#7]:[#6]1:[#6](:[#6]:3-[H]):[#6](:[#6](:[#6](:[#6]:1-[H])-[H])-[H])-[H])(-[H])-[H]):[#6]:2=[#8])-[H])(-[H])-[H]'],"['InChI=1S/C20H16N2O4/c1-2-20(25)14-8-16-17-12(7-11-5-3-4-6-15(11)21-17)9-22(16)18(23)13(14)10-26-19(20)24/h3-8,25H,2,9-10H2,1H3/t20-/m0/s1']",['VSJKWCGYPAHWDS-FQEVSTJZSA-N']
captopril_neut->an,3.7,captopril,profiles of drug substances excipiends and related (U),['[H]OC(=O)[C@@]1([H])N(C(=O)[C@]([H])(C([H])([H])[H])C([H])([H])S[H])C([H])([H])C([H])([H])C1([H])[H]'],['[#16](-[#6@](-[#6@](-[#6](=[#8])-[#7]1-[#6@@](-[#6@](-[#6@@](-[#6@@]-1(-[H])-[H])(-[H])-[H])(-[H])-[H])(-[#6](-[#8]-[H])=[#8])-[H])(-[#6@@](-[H])(-[H])-[H])-[H])(-[H])-[H])-[H]'],"['InChI=1S/C9H15NO3S/c1-6(5-14)8(11)10-4-2-3-7(10)9(12)13/h6-7,14H,2-5H2,1H3,(H,12,13)/t6-,7+/m1/s1']",['FAKRSMQSSFJEIM-RQJHMYQMSA-N']
captopril_an->2an,9.8,captopril,profiles of drug substances excipiends and related (U),['[H]OC(=O)[C@@]1([H])N(C(=O)[C@]([H])(C([H])([H])[H])C([H])([H])S[H])C([H])([H])C([H])([H])C1([H])[H]'],['[#16](-[#6@](-[#6@](-[#6](=[#8])-[#7]1-[#6@@](-[#6@](-[#6@@](-[#6@@]-1(-[H])-[H])(-[H])-[H])(-[H])-[H])(-[#6](-[#8]-[H])=[#8])-[H])(-[#6@@](-[H])(-[H])-[H])-[H])(-[H])-[H])-[H]'],"['InChI=1S/C9H15NO3S/c1-6(5-14)8(11)10-4-2-3-7(10)9(12)13/h6-7,14H,2-5H2,1H3,(H,12,13)/t6-,7+/m1/s1']",['FAKRSMQSSFJEIM-RQJHMYQMSA-N']
chloralhydrate_neut->an,10.04,chloral hydrate ,profiles of drug substances excipiends and related (U),['[H]OC([H])(O[H])C(Cl)(Cl)Cl'],['[#17]-[#6@@](-[#17])(-[#17])-[#6@](-[#8]-[H])(-[#8]-[H])-[H]'],"['InChI=1S/C2H3Cl3O2/c3-2(4,5)1(6)7/h1,6-7H']",['RNFNDJAIBTYOQL-UHFFFAOYSA-N']
8chlorotheophylline_neut->an,5.3,8-chlorotheophylline,profiles of drug substances excipiends and related (U),['[H]n1c(Cl)nc2c1c(=O)n(C([H])([H])[H])c(=O)n2C([H])([H])[H]'],['[#17]-[#6]1:[#7](:[#6]2:[#6](:[#7](:[#6](=[#8]):[#7](:[#6]:2=[#8])-[#6@](-[H])(-[H])-[H])-[#6@](-[H])(-[H])-[H]):[#7]:1)-[H]'],"['InChI=1S/C7H7ClN4O2/c1-11-4-3(9-6(8)10-4)5(13)12(2)7(11)14/h1-2H3,(H,9,10)']",['RYIGNEOBDRVTHA-UHFFFAOYSA-N']
chlorothiazide_neut->an,6.85,chlorothiazide,profiles of drug substances excipiends and related (U),['[H]C1=NS(=O)(=O)c2c([H])c(S(=O)(=O)N([H])[H])c(Cl)c([H])c2N1[H]'],['[#17]-[#6]1:[#6](-[#16@@](=[#8])(=[#8])-[#7](-[H])-[H]):[#6](:[#6]2-[#16@](=[#8])(=[#8])-[#7]=[#6](-[#7](-[#6]:2:[#6]:1-[H])-[H])-[H])-[H]'],"['InChI=1S/C7H6ClN3O4S2/c8-4-1-5-7(2-6(4)16(9,12)13)17(14,15)11-3-10-5/h1-3H,(H,10,11)(H2,9,12,13)']",['JBMKAUGHUNFTOL-UHFFFAOYSA-N']
chlorothiazide_an->2an,9.45,chlorothiazide,profiles of drug substances excipiends and related (U),['[H]C1=NS(=O)(=O)c2c([H])c(S(=O)(=O)N([H])[H])c(Cl)c([H])c2N1[H]'],['[#17]-[#6]1:[#6](-[#16@@](=[#8])(=[#8])-[#7](-[H])-[H]):[#6](:[#6]2-[#16@](=[#8])(=[#8])-[#7]=[#6](-[#7](-[#6]:2:[#6]:1-[H])-[H])-[H])-[H]'],"['InChI=1S/C7H6ClN3O4S2/c8-4-1-5-7(2-6(4)16(9,12)13)17(14,15)11-3-10-5/h1-3H,(H,10,11)(H2,9,12,13)']",['JBMKAUGHUNFTOL-UHFFFAOYSA-N']
cinoxacin_neut->an,5.38,cinoxacin,profiles of drug substances excipiends and related (U),['[H]OC(=O)c1nn(C([H])([H])C([H])([H])[H])c2c([H])c3c(c([H])c2c1=O)OC([H])([H])O3'],['[#8]1-[#6]2:[#6](:[#6]3:[#7](:[#7]:[#6](:[#6](=[#8]):[#6]:3:[#6](:[#6]:2-[#8]-[#6@@]-1(-[H])-[H])-[H])-[#6](-[#8]-[H])=[#8])-[#6@@](-[#6@@](-[H])(-[H])-[H])(-[H])-[H])-[H]'],"['InChI=1S/C12H10N2O5/c1-2-14-7-4-9-8(18-5-19-9)3-6(7)11(15)10(13-14)12(16)17/h3-4H,2,5H2,1H3,(H,16,17)']",['VDUWPHTZYNWKRN-UHFFFAOYSA-N']
clioquinol_neut->an,8.16,clioquinol,profiles of drug substances excipiends and related (A),['[H]Oc1c(I)c([H])c(Cl)c2c([H])c([H])c([H])nc12'],['[#53]-[#6]1:[#6](-[#8]-[H]):[#6]2:[#7]:[#6](:[#6](:[#6](:[#6]:2:[#6](-[#17]):[#6]:1-[H])-[H])-[H])-[H]'],"['InChI=1S/C9H5ClINO/c10-6-4-7(11)9(13)8-5(6)2-1-3-12-8/h1-4,13H']",['QCDFBFJGMNKBDO-UHFFFAOYSA-N']
clonidine_cation->neut,8.12,clonidine,profiles of drug substances excipiends and related (A),"['[H]c1c([H])c(Cl)c(N=C2N([H])C([H])([H])C([H])([H])N2[H])c(Cl)c1[H]', '[H]c1c([H])c(Cl)c(N([H])C2=NC([H])([H])C([H])([H])N2[H])c(Cl)c1[H]']","['[#17]-[#6]1:[#6](-[#7]=[#6]2-[#7](-[#6@](-[#6@@](-[#7]-2-[H])(-[H])-[H])(-[H])-[H])-[H]):[#6](-[#17]):[#6](:[#6](:[#6]:1-[H])-[H])-[H]', '[#17]-[#6]1:[#6](-[#7](-[#6]2-[#7](-[#6@](-[#6@@](-[#7]=2)(-[H])-[H])(-[H])-[H])-[H])-[H]):[#6](-[#17]):[#6](:[#6](:[#6]:1-[H])-[H])-[H]']","['InChI=1S/C9H9Cl2N3/c10-6-2-1-3-7(11)8(6)14-9-12-4-5-13-9/h1-3H,4-5H2,(H2,12,13,14)']",['GJSURZIOUXUGAL-UHFFFAOYSA-N']
clozapine_2cation->cation,4.02,clozapine,https://doi.org/10.1002/jps.21287,['[H]c1c([H])c([H])c2c(c1[H])C(N1C([H])([H])C([H])([H])N(C([H])([H])[H])C([H])([H])C1([H])[H])=Nc1c([H])c(Cl)c([H])c([H])c1N2[H]'],['[#17]-[#6]1:[#6](:[#6]2-[#7]=[#6](-[#7]3-[#6@@](-[#6@@](-[#7](-[#6@](-[#6@]-3(-[H])-[H])(-[H])-[H])-[#6@](-[H])(-[H])-[H])(-[H])-[H])(-[H])-[H])-[#6]3:[#6](-[#7](-[#6]:2:[#6](:[#6]:1-[H])-[H])-[H]):[#6](:[#6](:[#6](:[#6]:3-[H])-[H])-[H])-[H])-[H]'],"['InChI=1S/C18H19ClN4/c1-22-8-10-23(11-9-22)18-14-4-2-3-5-15(14)20-16-7-6-13(19)12-17(16)21-18/h2-7,12,20H,8-11H2,1H3']",['QZUDBNBUXVUHMW-UHFFFAOYSA-N']
clozapine_cation->neut,7.6,clozapine,https://doi.org/10.1002/jps.21287,['[H]c1c([H])c([H])c2c(c1[H])C(N1C([H])([H])C([H])([H])N(C([H])([H])[H])C([H])([H])C1([H])[H])=Nc1c([H])c(Cl)c([H])c([H])c1N2[H]'],['[#17]-[#6]1:[#6](:[#6]2-[#7]=[#6](-[#7]3-[#6@@](-[#6@@](-[#7](-[#6@](-[#6@]-3(-[H])-[H])(-[H])-[H])-[#6@](-[H])(-[H])-[H])(-[H])-[H])(-[H])-[H])-[#6]3:[#6](-[#7](-[#6]:2:[#6](:[#6]:1-[H])-[H])-[H]):[#6](:[#6](:[#6](:[#6]:3-[H])-[H])-[H])-[H])-[H]'],"['InChI=1S/C18H19ClN4/c1-22-8-10-23(11-9-22)18-14-4-2-3-5-15(14)20-16-7-6-13(19)12-17(16)21-18/h2-7,12,20H,8-11H2,1H3']",['QZUDBNBUXVUHMW-UHFFFAOYSA-N']
2cyanoguanidinophenytoin_neut->an,5.3,2-cyanoguanidinophenytoin,profiles of drug substances excipiends and related (U),['[H]c1c([H])c([H])c(C2(c3c([H])c([H])c([H])c([H])c3[H])C(=O)N([H])/C(=N\\C#N)N2[H])c([H])c1[H]'],['[#8]=[#6]1-[#7](/[#6](-[#7](-[#6@@]-1(-[#6]1:[#6](:[#6](:[#6](:[#6](:[#6]:1-[H])-[H])-[H])-[H])-[H])-[#6]1:[#6](:[#6](:[#6](:[#6](:[#6]:1-[H])-[H])-[H])-[H])-[H])-[H])=[#7]\\[#6]#[#7])-[H]'],"['InChI=1S/C16H12N4O/c17-11-18-15-19-14(21)16(20-15,12-7-3-1-4-8-12)13-9-5-2-6-10-13/h1-10H,(H2,18,19,20,21)']",['HSFDXMADWFHXEY-UHFFFAOYSA-N']
cycliramine_2cation->cation,3.64,cycliramide,profiles of drug substances excipiends and related (U),['[H]c1nc(C(=C2C([H])([H])C([H])([H])N(C([H])([H])[H])C([H])([H])C2([H])[H])c2c([H])c([H])c(Cl)c([H])c2[H])c([H])c([H])c1[H]'],['[#17]-[#6]1:[#6](:[#6](:[#6](-[#6](=[#6]2-[#6@@](-[#6@@](-[#7](-[#6@](-[#6@]-2(-[H])-[H])(-[H])-[H])-[#6@](-[H])(-[H])-[H])(-[H])-[H])(-[H])-[H])-[#6]2:[#7]:[#6](:[#6](:[#6](:[#6]:2-[H])-[H])-[H])-[H]):[#6](:[#6]:1-[H])-[H])-[H])-[H]'],"['InChI=1S/C18H19ClN2/c1-21-12-9-15(10-13-21)18(17-4-2-3-11-20-17)14-5-7-16(19)8-6-14/h2-8,11H,9-10,12-13H2,1H3']",['HZNVLDCWAVIXRK-UHFFFAOYSA-N']
cycliramine_cation->neut,8.78,cycliramide,profiles of drug substances excipiends and related (U),['[H]c1nc(C(=C2C([H])([H])C([H])([H])N(C([H])([H])[H])C([H])([H])C2([H])[H])c2c([H])c([H])c(Cl)c([H])c2[H])c([H])c([H])c1[H]'],['[#17]-[#6]1:[#6](:[#6](:[#6](-[#6](=[#6]2-[#6@@](-[#6@@](-[#7](-[#6@](-[#6@]-2(-[H])-[H])(-[H])-[H])-[#6@](-[H])(-[H])-[H])(-[H])-[H])(-[H])-[H])-[#6]2:[#7]:[#6](:[#6](:[#6](:[#6]:2-[H])-[H])-[H])-[H]):[#6](:[#6]:1-[H])-[H])-[H])-[H]'],"['InChI=1S/C18H19ClN2/c1-21-12-9-15(10-13-21)18(17-4-2-3-11-20-17)14-5-7-16(19)8-6-14/h2-8,11H,9-10,12-13H2,1H3']",['HZNVLDCWAVIXRK-UHFFFAOYSA-N']
cycloserine_cation->neut,4.53,cycloserine,doi.org/10.1007/BF01895277,"['[H]N1OC([H])([H])[C@@]([H])(N([H])[H])C1=O', '[H]C1([H])ON=C([O-])[C@]1([H])[N+]([H])([H])[H]']","['[#8]1-[#7](-[#6](=[#8])-[#6@](-[#7](-[H])-[H])(-[#6@@]-1(-[H])-[H])-[H])-[H]', '[#8]1-[#7]=[#6](-[#8-])-[#6@](-[#7@+](-[H])(-[H])-[H])(-[#6@@]-1(-[H])-[H])-[H]']","['InChI=1S/C3H6N2O2/c4-2-1-7-5-3(2)6/h2H,1,4H2,(H,5,6)/t2-/m1/s1']",['DYDCUQKUCUHJBH-UWTATZPHSA-N']
cycloserine_neut->an,7.31,cycloserine,doi.org/10.1007/BF01895277,"['[H]N1OC([H])([H])[C@@]([H])(N([H])[H])C1=O', '[H]C1([H])ON=C([O-])[C@]1([H])[N+]([H])([H])[H]']","['[#8]1-[#7](-[#6](=[#8])-[#6@](-[#7](-[H])-[H])(-[#6@@]-1(-[H])-[H])-[H])-[H]', '[#8]1-[#7]=[#6](-[#8-])-[#6@](-[#7@+](-[H])(-[H])-[H])(-[#6@@]-1(-[H])-[H])-[H]']","['InChI=1S/C3H6N2O2/c4-2-1-7-5-3(2)6/h2H,1,4H2,(H,5,6)/t2-/m1/s1']",['DYDCUQKUCUHJBH-UWTATZPHSA-N']
dihydrocodeine_cation->neut,8.75,dihydrocodeine,profiles of drug substances excipiends and related (A),['[H]O[C@@]1([H])C([H])([H])C([H])([H])[C@]2([H])[C@]34c5c(c(OC([H])([H])[H])c([H])c([H])c5C([H])([H])[C@@]2([H])N(C([H])([H])[H])C([H])([H])C3([H])[H])O[C@]41[H]'],['[#8]1-[#6@@]2(-[#6@]34-[#6@](-[#6@](-[#7](-[#6@](-[#6@@]-3(-[H])-[H])(-[H])-[H])-[#6@](-[H])(-[H])-[H])(-[#6@](-[#6]3:[#6]-4:[#6]-1:[#6](-[#8]-[#6@](-[H])(-[H])-[H]):[#6](:[#6]:3-[H])-[H])(-[H])-[H])-[H])(-[#6@](-[#6@@](-[#6@@]-2(-[#8]-[H])-[H])(-[H])-[H])(-[H])-[H])-[H])-[H]'],"['InChI=1S/C18H23NO3/c1-19-8-7-18-11-4-5-13(20)17(18)22-16-14(21-2)6-3-10(15(16)18)9-12(11)19/h3,6,11-13,17,20H,4-5,7-9H2,1-2H3/t11-,12+,13-,17-,18-/m0/s1']",['RBOXVHNMENFORY-DNJOTXNNSA-N']
dihydromorphine_cation->neut,9.35,dihydromorphine,profiles of drug substances excipiends and related (A),['[H]Oc1c([H])c([H])c2c3c1O[C@]1([H])[C@]34C([H])([H])C([H])([H])N(C([H])([H])[H])[C@]([H])(C2([H])[H])[C@]4([H])C([H])([H])C([H])([H])[C@]1([H])O[H]'],['[#8]1-[#6@@]2(-[#6@]34-[#6@](-[#6@](-[#7](-[#6@](-[#6@@]-3(-[H])-[H])(-[H])-[H])-[#6@](-[H])(-[H])-[H])(-[#6@](-[#6]3:[#6]-4:[#6]-1:[#6](-[#8]-[H]):[#6](:[#6]:3-[H])-[H])(-[H])-[H])-[H])(-[#6@](-[#6@@](-[#6@@]-2(-[#8]-[H])-[H])(-[H])-[H])(-[H])-[H])-[H])-[H]'],"['InChI=1S/C17H21NO3/c1-18-7-6-17-10-3-5-13(20)16(17)21-15-12(19)4-2-9(14(15)17)8-11(10)18/h2,4,10-11,13,16,19-20H,3,5-8H2,1H3/t10-,11+,13-,16-,17-/m0/s1']",['IJVCSMSMFSCRME-KBQPJGBKSA-N']
diphenic_neut->an,3.2,diphenic,profiles of drug substances excipiends and related (U),['[H]OC(=O)c1c([H])c([H])c([H])c([H])c1-c1c([H])c([H])c([H])c([H])c1C(=O)O[H]'],"['[#8](-[#6](=[#8])-[#6]1:[#6](-[#6]2:[#6](:[#6](:[#6](:[#6](:[#6]:2-[H])-[H])-[H])-[H])-[#6](-[#8]-[H])=[#8]):[#6](:[#6](:[#6](:[#6]:1-[H])-[H])-[H])-[H])-[H]', '[#8](-[#6](=[#8])-[#6]1:[#6](-[#6]2:[#6](:[#6](:[#6](:[#6](:[#6]:2-[H])-[H])-[H])-[H])-[#6](=[#8])-[#8]-[H]):[#6](:[#6](:[#6](:[#6]:1-[H])-[H])-[H])-[H])-[H]']","['InChI=1S/C14H10O4/c15-13(16)11-7-3-1-5-9(11)10-6-2-4-8-12(10)14(17)18/h1-8H,(H,15,16)(H,17,18)']",['GWZCCUDJHOGOSO-UHFFFAOYSA-N']
diphenic_an->2an,5.06,diphenic,profiles of drug substances excipiends and related (U),['[H]OC(=O)c1c([H])c([H])c([H])c([H])c1-c1c([H])c([H])c([H])c([H])c1C(=O)O[H]'],"['[#8](-[#6](=[#8])-[#6]1:[#6](-[#6]2:[#6](:[#6](:[#6](:[#6](:[#6]:2-[H])-[H])-[H])-[H])-[#6](-[#8]-[H])=[#8]):[#6](:[#6](:[#6](:[#6]:1-[H])-[H])-[H])-[H])-[H]', '[#8](-[#6](=[#8])-[#6]1:[#6](-[#6]2:[#6](:[#6](:[#6](:[#6](:[#6]:2-[H])-[H])-[H])-[H])-[#6](=[#8])-[#8]-[H]):[#6](:[#6](:[#6](:[#6]:1-[H])-[H])-[H])-[H])-[H]']","['InChI=1S/C14H10O4/c15-13(16)11-7-3-1-5-9(11)10-6-2-4-8-12(10)14(17)18/h1-8H,(H,15,16)(H,17,18)']",['GWZCCUDJHOGOSO-UHFFFAOYSA-N']
dipnehylpyraline_cation->neut,8.9,diphenylpyraline,profiles of drug substances excipiends and related (U),['[H]c1c([H])c([H])c(C([H])(OC2([H])C([H])([H])C([H])([H])N(C([H])([H])[H])C([H])([H])C2([H])[H])c2c([H])c([H])c([H])c([H])c2[H])c([H])c1[H]'],['[#8](-[#6@@]1(-[#6@](-[#6@@](-[#7](-[#6@](-[#6@@]-1(-[H])-[H])(-[H])-[H])-[#6@](-[H])(-[H])-[H])(-[H])-[H])(-[H])-[H])-[H])-[#6@@](-[#6]1:[#6](:[#6](:[#6](:[#6](:[#6]:1-[H])-[H])-[H])-[H])-[H])(-[#6]1:[#6](:[#6](:[#6](:[#6](:[#6]:1-[H])-[H])-[H])-[H])-[H])-[H]'],"['InChI=1S/C19H23NO/c1-20-14-12-18(13-15-20)21-19(16-8-4-2-5-9-16)17-10-6-3-7-11-17/h2-11,18-19H,12-15H2,1H3']",['OWQUZNMMYNAXSL-UHFFFAOYSA-N']
ecgoninemethylester_cation->neut,9.16,ectonine methyl ester,profiles of drug substances excipiends and related (U),['[H]O[C@@]1([H])C([H])([H])[C@@]2([H])N(C([H])([H])[H])[C@]([H])(C([H])([H])C2([H])[H])[C@@]1([H])C(=O)OC([H])([H])[H]'],['[#8](-[#6@@]1(-[#6@@](-[#6@@]2(-[#7](-[#6@@](-[#6@](-[#6@@]-2(-[H])-[H])(-[H])-[H])(-[#6@@]-1(-[H])-[H])-[H])-[#6@](-[H])(-[H])-[H])-[H])(-[#6](-[#8]-[#6@](-[H])(-[H])-[H])=[#8])-[H])-[H])-[H]'],"['InChI=1S/C10H17NO3/c1-11-6-3-4-7(11)9(8(12)5-6)10(13)14-2/h6-9,12H,3-5H2,1-2H3/t6-,7+,8-,9+/m0/s1']",['QIQNNBXHAYSQRY-UYXSQOIJSA-N']
epinastine_cation->neut,11.2,epinastine,profiles of drug substances excipiends and related (U),"['[H]/N=C1/N([H])C([H])([H])[C@@]2([H])c3c([H])c([H])c([H])c([H])c3C([H])([H])c3c([H])c([H])c([H])c([H])c3N12', '[H]/N=C1\\N([H])C([H])([H])[C@@]2([H])c3c([H])c([H])c([H])c([H])c3C([H])([H])c3c([H])c([H])c([H])c([H])c3N12', '[H]c1c([H])c([H])c2c(c1[H])N1C(N([H])[H])=NC([H])([H])[C@@]1([H])c1c([H])c([H])c([H])c([H])c1C2([H])[H]']","['[#7]12-[#6@](-[#6]3:[#6](-[#6@@](-[#6]4:[#6]-1:[#6](:[#6](:[#6](:[#6]:4-[H])-[H])-[H])-[H])(-[H])-[H]):[#6](:[#6](:[#6](:[#6]:3-[H])-[H])-[H])-[H])(-[#6@@](-[#7](/[#6]-2=[#7]/[H])-[H])(-[H])-[H])-[H]', '[#7]12-[#6@](-[#6]3:[#6](-[#6@@](-[#6]4:[#6]-1:[#6](:[#6](:[#6](:[#6]:4-[H])-[H])-[H])-[H])(-[H])-[H]):[#6](:[#6](:[#6](:[#6]:3-[H])-[H])-[H])-[H])(-[#6@@](-[#7](/[#6]-2=[#7]\\[H])-[H])(-[H])-[H])-[H]', '[#7]12-[#6@](-[#6]3:[#6](-[#6@@](-[#6]4:[#6]-1:[#6](:[#6](:[#6](:[#6]:4-[H])-[H])-[H])-[H])(-[H])-[H]):[#6](:[#6](:[#6](:[#6]:3-[H])-[H])-[H])-[H])(-[#6@@](-[#7]=[#6]-2-[#7](-[H])-[H])(-[H])-[H])-[H]']","['InChI=1S/C16H15N3/c17-16-18-10-15-13-7-3-1-5-11(13)9-12-6-2-4-8-14(12)19(15)16/h1-8,15H,9-10H2,(H2,17,18)/t15-/m0/s1']",['WHWZLSFABNNENI-HNNXBMFYSA-N']
estazolam_cation->neut,2.84,estazolam,profiles of drug substances excipiends and related (U),['[H]c1c([H])c([H])c(C2=NC([H])([H])c3nnc([H])n3-c3c([H])c([H])c(Cl)c([H])c32)c([H])c1[H]'],['[#17]-[#6]1:[#6](:[#6]2:[#6](-[#7]3:[#6](:[#7]:[#7]:[#6]:3-[H])-[#6@@](-[#7]=[#6]-2-[#6]2:[#6](:[#6](:[#6](:[#6](:[#6]:2-[H])-[H])-[H])-[H])-[H])(-[H])-[H]):[#6](:[#6]:1-[H])-[H])-[H]'],"['InChI=1S/C16H11ClN4/c17-12-6-7-14-13(8-12)16(11-4-2-1-3-5-11)18-9-15-20-19-10-21(14)15/h1-8,10H,9H2']",['CDCHDCWJMGXXRH-UHFFFAOYSA-N']
fludiazepam_cation->neut,2.29,fludiazepam,profiles of drug substances excipiends and related (U),['[H]c1c([H])c([H])c(C2=NC([H])([H])C(=O)N(C([H])([H])[H])c3c([H])c([H])c(Cl)c([H])c32)c(F)c1[H]'],['[#17]-[#6]1:[#6](:[#6]2:[#6](-[#7](-[#6](=[#8])-[#6@@](-[#7]=[#6]-2-[#6]2:[#6](-[#9]):[#6](:[#6](:[#6](:[#6]:2-[H])-[H])-[H])-[H])(-[H])-[H])-[#6@](-[H])(-[H])-[H]):[#6](:[#6]:1-[H])-[H])-[H]'],"['InChI=1S/C16H12ClFN2O/c1-20-14-7-6-10(17)8-12(14)16(19-9-15(20)21)11-4-2-3-5-13(11)18/h2-8H,9H2,1H3']",['ROYOYTLGDLIGBX-UHFFFAOYSA-N']