compn,pKa,correct name,reference,smiles,smarts,inchi,inchiKey
3methylsulfonylaniline_cation->neut,2.68,3-methylsulfonylaniline,Lange's handbook of chemistry,['[H]c1c([H])c(N([H])[H])c([H])c(S(=O)(=O)C([H])([H])[H])c1[H]'],['[#6]1(:[#6](:[#6](:[#6](:[#6](:[#6]:1-[H])-[H])-[H])-[#7](-[H])-[H])-[H])-[#16@](=[#8])(=[#8])-[#6@@](-[H])(-[H])-[H]'],"['InChI=1S/C7H9NO2S/c1-11(9,10)7-4-2-3-6(8)5-7/h2-5H,8H2,1H3']",['MBNPJRQKQLLRIS-UHFFFAOYSA-N']
3methylsulfonylbenzoic_neut->an,3.52,3-methylsulfonylbenzoic acid,Lange's handbook of chemistry,['[H]OC(=O)c1c([H])c([H])c([H])c(S(=O)(=O)C([H])([H])[H])c1[H]'],['[#6]1(:[#6](:[#6](:[#6](:[#6](:[#6]:1-[#16@](=[#8])(=[#8])-[#6@@](-[H])(-[H])-[H])-[H])-[#6](=[#8])-[#8]-[H])-[H])-[H])-[H]'],"['InChI=1S/C8H8O4S/c1-13(11,12)7-4-2-3-6(5-7)8(9)10/h2-5H,1H3,(H,9,10)']",['KUTBMATZUQWFSR-UHFFFAOYSA-N']
3methylsulfonylphenol_neut->an,9.33,3-methylsulfonylphenol,doi/epdf/10.1021/ja01124a057,['[H]Oc1c([H])c([H])c([H])c(S(=O)(=O)C([H])([H])[H])c1[H]'],['[#6]1(:[#6](:[#6](:[#6](:[#6](:[#6]:1-[#16@](=[#8])(=[#8])-[#6@@](-[H])(-[H])-[H])-[H])-[#8]-[H])-[H])-[H])-[H]'],"['InChI=1S/C7H8O3S/c1-11(9,10)7-4-2-3-6(8)5-7/h2-5,8H,1H3']",['MRZXZRGNTXHLKA-UHFFFAOYSA-N']
3methylthiopyridazine_cation->neut,2.26,3-methylthiopyridazine,10.1002/jcc.23068,['[H]c1nnc(SC([H])([H])[H])c([H])c1[H]'],['[#6]1(:[#6](:[#6](:[#6](:[#7]:[#7]:1)-[#16]-[#6@@](-[H])(-[H])-[H])-[H])-[H])-[H]'],"['InChI=1S/C5H6N2S/c1-8-5-3-2-4-6-7-5/h2-4H,1H3']",['MXMJHNGIWGMNIG-UHFFFAOYSA-N']
3nitropyridine_cation->neut,0.79,3-nitropyridine,Lange's handbook of chemistry,['[H]c1nc([H])c([N+](=O)[O-])c([H])c1[H]'],['[#6]1(:[#6](-[H]):[#7]:[#6](:[#6](:[#6]:1-[H])-[H])-[H])-[#7+](=[#8])-[#8-]'],['InChI=1S/C5H4N2O2/c8-7(9)5-2-1-3-6-4-5/h1-4H'],['QLILRKBRWXALIE-UHFFFAOYSA-N']
3pchlorocinnamic_neut->an,4.29,3-chlorocinnamic acid,Lange's handbook of chemistry,['[H]OC(=O)/C([H])=C(\\[H])c1c([H])c([H])c([H])c(Cl)c1[H]'],['[#8](-[#6](=[#8])/[#6](=[#6](/[#6]1:[#6](:[#6](:[#6](:[#6](:[#6]:1-[H])-[#17])-[H])-[H])-[H])-[H])-[H])-[H]'],"['InChI=1S/C9H7ClO2/c10-8-3-1-2-7(6-8)4-5-9(11)12/h1-6H,(H,11,12)/b5-4+']",['FFKGOJWPSXRALK-SNAWJCMRSA-N']
3pyrroline_cation->neut,10.46,3-pyrroline,doi.org/10.1007/BF00988831,['[H]C1=C([H])C([H])([H])N([H])C1([H])[H]'],['[#7]1(-[#6@](-[#6](=[#6](-[#6@@]-1(-[H])-[H])-[H])-[H])(-[H])-[H])-[H]'],"['InChI=1S/C4H7N/c1-2-4-5-3-1/h1-2,5H,3-4H2']",['JVQIKJMSUIMUDI-UHFFFAOYSA-N']
3sulfamylbenzoic_neut->an,3.54,3-sulfamoylbenzoic acid,Lange's handbook of chemistry,['[H]OC(=O)c1c([H])c([H])c([H])c(S(=O)(=O)N([H])[H])c1[H]'],['[#8]=[#16@](=[#8])(-[#7](-[H])-[H])-[#6]1:[#6](:[#6](:[#6](:[#6](:[#6]:1-[H])-[H])-[H])-[#6](-[#8]-[H])=[#8])-[H]'],"['InChI=1S/C7H7NO4S/c8-13(11,12)6-3-1-2-5(4-6)7(9)10/h1-4H,(H,9,10)(H2,8,11,12)']",['NAETXYOXMDYNLE-UHFFFAOYSA-N']
3sulfobenzoic_an->2an,3.78,3-sulfobenzoic acid,Lange's handbook of chemistry,['[H]OC(=O)c1c([H])c([H])c([H])c(S(=O)(=O)[O-])c1[H]'],['[#8]=[#16@](=[#8])(-[#8-])-[#6]1:[#6](:[#6](:[#6](:[#6](:[#6]:1-[H])-[H])-[H])-[#6](-[#8]-[H])=[#8])-[H]'],"['InChI=1S/C7H6O5S/c8-7(9)5-2-1-3-6(4-5)13(10,11)12/h1-4H,(H,8,9)(H,10,11,12)/p-1']",['QMWGSOMVXSRXQX-UHFFFAOYSA-M']
3sulfophenol_an->2an,9.07,3-phenolsulfonic acid,Lange's handbook of chemistry,['[H]Oc1c([H])c([H])c([H])c(S(=O)(=O)[O-])c1[H]'],['[#8]=[#16@](=[#8])(-[#8-])-[#6]1:[#6](:[#6](:[#6](:[#6](:[#6]:1-[H])-[H])-[H])-[#8]-[H])-[H]'],"['InChI=1S/C6H6O4S/c7-5-2-1-3-6(4-5)11(8,9)10/h1-4,7H,(H,8,9,10)/p-1']",['ZCLXQTGLKVQKFD-UHFFFAOYSA-M']
3tertbutylbenzoic_neut->an,4.2,3-tert-butylbenzoic acid,Lange's handbook of chemistry,['[H]OC(=O)c1c([H])c([H])c([H])c(C(C([H])([H])[H])(C([H])([H])[H])C([H])([H])[H])c1[H]'],['[#8](-[#6](=[#8])-[#6]1:[#6](:[#6](-[#6@](-[#6@@](-[H])(-[H])-[H])(-[#6@@](-[H])(-[H])-[H])-[#6@@](-[H])(-[H])-[H]):[#6](:[#6](:[#6]:1-[H])-[H])-[H])-[H])-[H]'],"['InChI=1S/C11H14O2/c1-11(2,3)9-6-4-5-8(7-9)10(12)13/h4-7H,1-3H3,(H,12,13)']",['PWEJHEZAHNQSHP-UHFFFAOYSA-N']
3tertbutylphenol_neut->an,10.12,3-tertbutylphenol,Lange's handbook of chemistry,['[H]Oc1c([H])c([H])c([H])c(C(C([H])([H])[H])(C([H])([H])[H])C([H])([H])[H])c1[H]'],['[#8](-[#6]1:[#6](:[#6](-[#6@](-[#6@@](-[H])(-[H])-[H])(-[#6@@](-[H])(-[H])-[H])-[#6@@](-[H])(-[H])-[H]):[#6](:[#6](:[#6]:1-[H])-[H])-[H])-[H])-[H]'],"['InChI=1S/C10H14O/c1-10(2,3)8-5-4-6-9(11)7-8/h4-7,11H,1-3H3']",['CYEKUDPFXBLGHH-UHFFFAOYSA-N']
3tertbutylpyridine_cation->neut,5.82,3-tert-butylpyridine,Lange's handbook of chemistry,['[H]c1nc([H])c(C(C([H])([H])[H])(C([H])([H])[H])C([H])([H])[H])c([H])c1[H]'],['[#6]1(:[#6](-[H]):[#7]:[#6](:[#6](:[#6]:1-[H])-[H])-[H])-[#6@](-[#6@@](-[H])(-[H])-[H])(-[#6@@](-[H])(-[H])-[H])-[#6@@](-[H])(-[H])-[H]'],"['InChI=1S/C9H13N/c1-9(2,3)8-5-4-6-10-7-8/h4-7H,1-3H3']",['FBUIIWHYTLCORM-UHFFFAOYSA-N']
3thiophenecarboxylic_neut->an,4.1,3-thiophenecarboxylic acid,Lange's handbook of chemistry,"['[H]O/C([O-])=C1\\C([H])=[S+]C([H])=C1[H]', '[H]O/C([O-])=C1/C([H])=[S+]C([H])=C1[H]']","['[#16]1=[#6](/[#6](-[#6](=[#6]-1-[H])-[H])=[#6](\\[#8]-[H])-[#8-])-[H]', '[#16]1=[#6](/[#6](-[#6](=[#6]-1-[H])-[H])=[#6](/[#8]-[H])-[#8-])-[H]']","['InChI=1S/C5H4O2S/c6-5(7)4-1-2-8-3-4/h1-3H,(H-,6,7)']",['BBOXVKGGYCBKGP-UHFFFAOYSA-N']
3trimethylsilylbenzoic_neut->an,4.09,3-trimethylsilylbenzoic acid,Lange's handbook of chemistry,['[H]OC(=O)c1c([H])c([H])c([H])c([Si](C([H])([H])[H])(C([H])([H])[H])C([H])([H])[H])c1[H]'],['[#8](-[#6](=[#8])-[#6]1:[#6](:[#6](-[#14@](-[#6@@](-[H])(-[H])-[H])(-[#6@@](-[H])(-[H])-[H])-[#6@@](-[H])(-[H])-[H]):[#6](:[#6](:[#6]:1-[H])-[H])-[H])-[H])-[H]'],"['InChI=1S/C10H14O2Si/c1-13(2,3)9-6-4-5-8(7-9)10(11)12/h4-7H,1-3H3,(H,11,12)']",['IGKYAVPWIPSEPG-UHFFFAOYSA-N']
4-aza-benzotriazoleoxime_neut->an,4.09,1-hydroxyazabenzotriazole,"J.Chem.Soc.Pak., Vol. 33, No. 3, 2011, 324-332","['[H]On1nnc2nc([H])c([H])c([H])c21', '[H]c1c([H])c2c(nnn2[O-])[n+]([H])c1[H]', '[H]c1nc2c(c([H])c1[H])n([O-])n[n+]2[H]', '[H]c1nc2n[n+]([H])n([O-])c2c([H])c1[H]']","['[#6]12:[#6](:[#7]:[#7]:[#7]:1-[#8]-[H]):[#7]:[#6](:[#6](:[#6]:2-[H])-[H])-[H]', '[#6]12:[#6](:[#7]:[#7]:[#7]:1-[#8-]):[#7+](:[#6](:[#6](:[#6]:2-[H])-[H])-[H])-[H]', '[#6]12:[#6](:[#7+](:[#7]:[#7]:1-[#8-])-[H]):[#7]:[#6](:[#6](:[#6]:2-[H])-[H])-[H]', '[#6]12:[#6](:[#7]:[#7+](:[#7]:1-[#8-])-[H]):[#7]:[#6](:[#6](:[#6]:2-[H])-[H])-[H]']","['InChI=1S/C5H4N4O/c10-9-4-2-1-3-6-5(4)7-8-9/h1-3,10H', 'InChI=1S/C5H3N4O/c10-9-4-2-1-3-6-5(4)7-8-9/h1-3H/q-1/p+1']","['BSXPDVKSFWQFRT-UHFFFAOYSA-N', 'YKPDWVVAONIUMF-UHFFFAOYSA-O']"
44bipyridine_2cation->cation,3.17,"4,4-bipyridine",Lange's handbook of chemistry,['[H]c1nc([H])c([H])c(-c2c([H])c([H])nc([H])c2[H])c1[H]'],['[#6]1(:[#6](:[#6](:[#6](:[#6](-[H]):[#7]:1)-[H])-[#6]1:[#6](:[#6](-[H]):[#7]:[#6](:[#6]:1-[H])-[H])-[H])-[H])-[H]'],['InChI=1S/C10H8N2/c1-5-11-6-2-9(1)10-3-7-12-8-4-10/h1-8H'],['MWVTWFVJZLCBMC-UHFFFAOYSA-N']
44bipyridine_cation->neut,4.82,"4,4-bipyridine",Lange's handbook of chemistry,['[H]c1nc([H])c([H])c(-c2c([H])c([H])nc([H])c2[H])c1[H]'],['[#6]1(:[#6](:[#6](:[#6](:[#6](-[H]):[#7]:1)-[H])-[#6]1:[#6](:[#6](-[H]):[#7]:[#6](:[#6]:1-[H])-[H])-[H])-[H])-[H]'],['InChI=1S/C10H8N2/c1-5-11-6-2-9(1)10-3-7-12-8-4-10/h1-8H'],['MWVTWFVJZLCBMC-UHFFFAOYSA-N']
45dimethylthiazole_cation->neut,3.73,"4,5-dimethylthiazole",Lange's handbook of chemistry,['[H]c1nc(C([H])([H])[H])c(C([H])([H])[H])s1'],['[#16]1:[#6](:[#6](:[#7]:[#6]:1-[H])-[#6@@](-[H])(-[H])-[H])-[#6@@](-[H])(-[H])-[H]'],"['InChI=1S/C5H7NS/c1-4-5(2)7-3-6-4/h3H,1-2H3']",['UWSONZCNXUSTKW-UHFFFAOYSA-N']
4acetamidobenzoic_neut->an,4.28,4-acetamidobenzoic acid,Lange's handbook of chemistry,['[H]OC(=O)c1c([H])c([H])c(N([H])C(=O)C([H])([H])[H])c([H])c1[H]'],['[#8](-[#6](=[#8])-[#6]1:[#6](:[#6](:[#6](-[#7](-[#6](=[#8])-[#6@](-[H])(-[H])-[H])-[H]):[#6](:[#6]:1-[H])-[H])-[H])-[H])-[H]'],"['InChI=1S/C9H9NO3/c1-6(11)10-8-4-2-7(3-5-8)9(12)13/h2-5H,1H3,(H,10,11)(H,12,13)']",['QCXJEYYXVJIFCE-UHFFFAOYSA-N']
4acetoxybenzoic_neut->an,4.38,4-acetoxybenzoic acid,Lange's handbook of chemistry,['[H]OC(=O)c1c([H])c([H])c(OC(=O)C([H])([H])[H])c([H])c1[H]'],['[#8](-[#6]1:[#6](:[#6](:[#6](:[#6](:[#6]:1-[H])-[H])-[#6](-[#8]-[H])=[#8])-[H])-[H])-[#6](=[#8])-[#6@](-[H])(-[H])-[H]'],"['InChI=1S/C9H8O4/c1-6(10)13-8-4-2-7(3-5-8)9(11)12/h2-5H,1H3,(H,11,12)']",['GDBUZIKSJGRBJP-UHFFFAOYSA-N']
4acetylbenzoic_neut->an,3.7,4-acetylbenzoic acid,Lange's handbook of chemistry,['[H]OC(=O)c1c([H])c([H])c(C(=O)C([H])([H])[H])c([H])c1[H]'],['[#8]=[#6](-[#6]1:[#6](:[#6](:[#6](:[#6](:[#6]:1-[H])-[H])-[#6](-[#8]-[H])=[#8])-[H])-[H])-[#6@](-[H])(-[H])-[H]'],"['InChI=1S/C9H8O3/c1-6(10)7-2-4-8(5-3-7)9(11)12/h2-5H,1H3,(H,11,12)']",['QBHDSQZASIBAAI-UHFFFAOYSA-N']
4acetylpyridine_cation->neut,3.51,4-acetylpyridine,Lange's handbook of chemistry,['[H]c1nc([H])c([H])c(C(=O)C([H])([H])[H])c1[H]'],['[#6]1(:[#6](:[#6](-[H]):[#7]:[#6](:[#6]:1-[H])-[H])-[H])-[#6](=[#8])-[#6@@](-[H])(-[H])-[H]'],"['InChI=1S/C7H7NO/c1-6(9)7-2-4-8-5-3-7/h2-5H,1H3']",['WMQUKDQWMMOHSA-UHFFFAOYSA-N']
4amino25dimethylphenol_cation->neut,5.28,"4-amino-2,5-dimethylphenol",Lange's handbook of chemistry,"['[H]c1c([O-])c(C([H])([H])[H])c([H])c([N+]([H])([H])[H])c1C([H])([H])[H]', '[H]Oc1c([H])c(C([H])([H])[H])c(N([H])[H])c([H])c1C([H])([H])[H]']","['[#8]-[#6]1:[#6](:[#6](:[#6](-[#7@@+](-[H])(-[H])-[H]):[#6](:[#6]:1-[H])-[#6@@](-[H])(-[H])-[H])-[H])-[#6@@](-[H])(-[H])-[H]', '[#8](-[#6]1:[#6](:[#6](:[#6](-[#7](-[H])-[H]):[#6](:[#6]:1-[H])-[#6@@](-[H])(-[H])-[H])-[H])-[#6@@](-[H])(-[H])-[H])-[H]']","['InChI=1S/C8H11NO/c1-5-4-8(10)6(2)3-7(5)9/h3-4,10H,9H2,1-2H3']",['JSWVCUXQICMATE-UHFFFAOYSA-N']
4amino25dimethylphenol_neut->an,10.4,"4-amino-2,5-dimethylphenol",Lange's handbook of chemistry,"['[H]c1c([O-])c(C([H])([H])[H])c([H])c([N+]([H])([H])[H])c1C([H])([H])[H]', '[H]Oc1c([H])c(C([H])([H])[H])c(N([H])[H])c([H])c1C([H])([H])[H]']","['[#8]-[#6]1:[#6](:[#6](:[#6](-[#7@@+](-[H])(-[H])-[H]):[#6](:[#6]:1-[H])-[#6@@](-[H])(-[H])-[H])-[H])-[#6@@](-[H])(-[H])-[H]', '[#8](-[#6]1:[#6](:[#6](:[#6](-[#7](-[H])-[H]):[#6](:[#6]:1-[H])-[#6@@](-[H])(-[H])-[H])-[H])-[#6@@](-[H])(-[H])-[H])-[H]']","['InChI=1S/C8H11NO/c1-5-4-8(10)6(2)3-7(5)9/h3-4,10H,9H2,1-2H3']",['JSWVCUXQICMATE-UHFFFAOYSA-N']
4amino2naphtoic_cation->neut,2.89,4-amino-2-naphthoic acid,Lange's handbook of chemistry,"['[H]OC(=O)c1c([H])c(N([H])[H])c2c([H])c([H])c([H])c([H])c2c1[H]', '[H]c1c([H])c([H])c2c([N+]([H])([H])[H])c([H])c(C(=O)[O-])c([H])c2c1[H]']","['[#6]12:[#6](:[#6](:[#6](:[#6](:[#6]:1-[H])-[#6](=[#8])-[#8]-[H])-[H])-[#7](-[H])-[H]):[#6](:[#6](:[#6](:[#6]:2-[H])-[H])-[H])-[H]', '[#6]12:[#6](:[#6](:[#6](:[#6](:[#6]:1-[H])-[#6](=[#8])-[#8-])-[H])-[#7@@+](-[H])(-[H])-[H]):[#6](:[#6](:[#6](:[#6]:2-[H])-[H])-[H])-[H]']","['InChI=1S/C11H9NO2/c12-10-6-8(11(13)14)5-7-3-1-2-4-9(7)10/h1-6H,12H2,(H,13,14)']",['HLYLEARJBJRRTJ-UHFFFAOYSA-N']
4amino2naphtoic_neut->an,4.46,4-amino-2-naphthoic acid,Lange's handbook of chemistry,"['[H]OC(=O)c1c([H])c(N([H])[H])c2c([H])c([H])c([H])c([H])c2c1[H]', '[H]c1c([H])c([H])c2c([N+]([H])([H])[H])c([H])c(C(=O)[O-])c([H])c2c1[H]']","['[#6]12:[#6](:[#6](:[#6](:[#6](:[#6]:1-[H])-[#6](=[#8])-[#8]-[H])-[H])-[#7](-[H])-[H]):[#6](:[#6](:[#6](:[#6]:2-[H])-[H])-[H])-[H]', '[#6]12:[#6](:[#6](:[#6](:[#6](:[#6]:1-[H])-[#6](=[#8])-[#8-])-[H])-[#7@@+](-[H])(-[H])-[H]):[#6](:[#6](:[#6](:[#6]:2-[H])-[H])-[H])-[H]']","['InChI=1S/C11H9NO2/c12-10-6-8(11(13)14)5-7-3-1-2-4-9(7)10/h1-6H,12H2,(H,13,14)']",['HLYLEARJBJRRTJ-UHFFFAOYSA-N']
4amino3methylpyridine_cation->neut,9.43,4-amino-3-methylpyridine,Lange's handbook of chemistry,['[H]c1nc([H])c(C([H])([H])[H])c(N([H])[H])c1[H]'],['[#6]1(:[#6](-[H]):[#7]:[#6](:[#6](:[#6]:1-[#7](-[H])-[H])-[#6@@](-[H])(-[H])-[H])-[H])-[H]'],"['InChI=1S/C6H8N2/c1-5-4-8-3-2-6(5)7/h2-4H,1H3,(H2,7,8)']",['VGJLGPCXUGIXRQ-UHFFFAOYSA-N']
4aminobenzoic_cation->neut,2.41,4-aminobenzoic acid,profiles of drug substances excipiends and related (A),"['[H]OC(=O)c1c([H])c([H])c(N([H])[H])c([H])c1[H]', '[H]c1c([H])c([N+]([H])([H])[H])c([H])c([H])c1C(=O)[O-]']","['[#8](-[#6](=[#8])-[#6]1:[#6](:[#6](:[#6](-[#7](-[H])-[H]):[#6](:[#6]:1-[H])-[H])-[H])-[H])-[H]', '[#8]=[#6](-[#8-])-[#6]1:[#6](:[#6](:[#6](-[#7@@+](-[H])(-[H])-[H]):[#6](:[#6]:1-[H])-[H])-[H])-[H]']","['InChI=1S/C7H7NO2/c8-6-3-1-5(2-4-6)7(9)10/h1-4H,8H2,(H,9,10)']",['ALYNCZNDIQEVRV-UHFFFAOYSA-N']
4aminobenzoic_neut->an,4.85,4-aminobenzoic acid,profiles of drug substances excipiends and related (A),"['[H]OC(=O)c1c([H])c([H])c(N([H])[H])c([H])c1[H]', '[H]c1c([H])c([N+]([H])([H])[H])c([H])c([H])c1C(=O)[O-]']","['[#8](-[#6](=[#8])-[#6]1:[#6](:[#6](:[#6](-[#7](-[H])-[H]):[#6](:[#6]:1-[H])-[H])-[H])-[H])-[H]', '[#8]=[#6](-[#8-])-[#6]1:[#6](:[#6](:[#6](-[#7@@+](-[H])(-[H])-[H]):[#6](:[#6]:1-[H])-[H])-[H])-[H]']","['InChI=1S/C7H7NO2/c8-6-3-1-5(2-4-6)7(9)10/h1-4H,8H2,(H,9,10)']",['ALYNCZNDIQEVRV-UHFFFAOYSA-N']
4aminobenzoicmethylester_cation->neut,2.45,4-aminobenzoic methyl ester,Lange's handbook of chemistry,['[H]c1c([H])c(N([H])[H])c([H])c([H])c1C(=O)OC([H])([H])[H]'],['[#8](-[#6](=[#8])-[#6]1:[#6](:[#6](:[#6](-[#7](-[H])-[H]):[#6](:[#6]:1-[H])-[H])-[H])-[H])-[#6@@](-[H])(-[H])-[H]'],"['InChI=1S/C8H9NO2/c1-11-8(10)6-2-4-7(9)5-3-6/h2-5H,9H2,1H3']",['LZXXNPOYQCLXRS-UHFFFAOYSA-N']
4aminobenzonitrile_cation->neut,1.74,4-aminobenzonitrile,Lange's handbook of chemistry,['[H]c1c([H])c(N([H])[H])c([H])c([H])c1C#N'],['[#7](-[#6]1:[#6](:[#6](:[#6](:[#6](:[#6]:1-[H])-[H])-[#6]#[#7])-[H])-[H])(-[H])-[H]'],"['InChI=1S/C7H6N2/c8-5-6-1-3-7(9)4-2-6/h1-4H,9H2']",['YBAZINRZQSAIAY-UHFFFAOYSA-N']
4aminobenzophenone_cation->neut,2.15,4-aminobenzophenone,Lange's handbook of chemistry,['[H]c1c([H])c([H])c(C(=O)c2c([H])c([H])c(N([H])[H])c([H])c2[H])c([H])c1[H]'],['[#8]=[#6](-[#6]1:[#6](:[#6](:[#6](-[#7](-[H])-[H]):[#6](:[#6]:1-[H])-[H])-[H])-[H])-[#6]1:[#6](:[#6](:[#6](:[#6](:[#6]:1-[H])-[H])-[H])-[H])-[H]'],"['InChI=1S/C13H11NO/c14-12-8-6-11(7-9-12)13(15)10-4-2-1-3-5-10/h1-9H,14H2']",['RBKHNGHPZZZJCI-UHFFFAOYSA-N']
4aminobenzosulfonic_neut->an,3.23,4-aminobenzenesulfonic acid,Lange's handbook of chemistry,['[H]c1c([H])c(S(=O)(=O)[O-])c([H])c([H])c1[N+]([H])([H])[H]'],['[#8]=[#16@](=[#8])(-[#8-])-[#6]1:[#6](:[#6](:[#6](-[#7@@+](-[H])(-[H])-[H]):[#6](:[#6]:1-[H])-[H])-[H])-[H]'],"['InChI=1S/C6H7NO3S/c7-5-1-3-6(4-2-5)11(8,9)10/h1-4H,7H2,(H,8,9,10)']",['HVBSAKJJOYLTQU-UHFFFAOYSA-N']
4aminobiphenyl_cation->neut,4.27,4-aminobiphenyl,Lange's handbook of chemistry,['[H]c1c([H])c([H])c(-c2c([H])c([H])c(N([H])[H])c([H])c2[H])c([H])c1[H]'],['[#7](-[#6]1:[#6](:[#6](:[#6](-[#6]2:[#6](:[#6](:[#6](:[#6](:[#6]:2-[H])-[H])-[H])-[H])-[H]):[#6](:[#6]:1-[H])-[H])-[H])-[H])(-[H])-[H]'],"['InChI=1S/C12H11N/c13-12-8-6-11(7-9-12)10-4-2-1-3-5-10/h1-9H,13H2']",['DMVOXQPQNTYEKQ-UHFFFAOYSA-N']
4aminoisoquinoline_cation->neut,6.27,4-aminoisoquinoline,10.1002/jcc.23068,['[H]c1nc([H])c2c([H])c([H])c([H])c([H])c2c1N([H])[H]'],['[#6]1(:[#6](:[#6]2:[#6](:[#6](:[#6]:1-[H])-[H]):[#6](:[#6](-[H]):[#7]:[#6]:2-[H])-[#7](-[H])-[H])-[H])-[H]'],"['InChI=1S/C9H8N2/c10-9-6-11-5-7-3-1-2-4-8(7)9/h1-6H,10H2']",['ISIUXVGHQFJYHM-UHFFFAOYSA-N']
4aminopyridine_cation->neut,9.11,4 aminopyridine,Lange's handbook of chemistry,['[H]c1nc([H])c([H])c(N([H])[H])c1[H]'],['[#6]1(:[#6](-[H]):[#7]:[#6](:[#6](:[#6]:1-[#7](-[H])-[H])-[H])-[H])-[H]'],"['InChI=1S/C5H6N2/c6-5-1-3-7-4-2-5/h1-4H,(H2,6,7)']",['NUKYPUAOHBNCPY-UHFFFAOYSA-N']
4aminopyrimidine_cation->neut,5.69,4-aminopyrimidine,10.1002/jcc.23068,['[H]c1nc([H])c([H])c(N([H])[H])n1'],['[#6]1(-[H]):[#7]:[#6](:[#6](:[#6](:[#7]:1)-[#7](-[H])-[H])-[H])-[H]'],"['InChI=1S/C4H5N3/c5-4-1-2-6-3-7-4/h1-3H,(H2,5,6,7)']",['OYRRZWATULMEPF-UHFFFAOYSA-N']
4aminoquinoline_cation->neut,9.13,4-aminoquinoline,10.1002/jcc.23068,['[H]c1nc2c([H])c([H])c([H])c([H])c2c(N([H])[H])c1[H]'],['[#6]1(:[#6](:[#6]2:[#6](:[#6](:[#6]:1-[H])-[H]):[#6](:[#6](:[#6](-[H]):[#7]:2)-[H])-[#7](-[H])-[H])-[H])-[H]'],"['InChI=1S/C9H8N2/c10-8-5-6-11-9-4-2-1-3-7(8)9/h1-6H,(H2,10,11)']",['FQYRLEXKXQRZDH-UHFFFAOYSA-N']
4aminosalicylic_an->2an,13.74,4-aminosalicylic acid,Lange's handbook of chemistry,"['[H]OC(=O)c1c([H])c([H])c(N([H])[H])c([H])c1O[H]', '[H]Oc1c([H])c([N+]([H])([H])[H])c([H])c([H])c1C(=O)[O-]']","['[#8](-[#6]1:[#6](:[#6](:[#6](:[#6](-[#7](-[H])-[H]):[#6]:1-[H])-[H])-[H])-[#6](-[#8]-[H])=[#8])-[H]', '[#8](-[#6]1:[#6](:[#6](:[#6](:[#6](-[#7@+](-[H])(-[H])-[H]):[#6]:1-[H])-[H])-[H])-[#6](=[#8])-[#8-])-[H]']","['InChI=1S/C7H7NO3/c8-4-1-2-5(7(10)11)6(9)3-4/h1-3,9H,8H2,(H,10,11)']",['WUBBRNOQWQTFEX-UHFFFAOYSA-N']
4aminosalicylic_cation->neut,1.78,4-aminosalicylic acid,profiles of drug substances excipiends and related (A),"['[H]OC(=O)c1c([H])c([H])c(N([H])[H])c([H])c1O[H]', '[H]Oc1c([H])c([N+]([H])([H])[H])c([H])c([H])c1C(=O)[O-]']","['[#8](-[#6]1:[#6](:[#6](:[#6](:[#6](-[#7](-[H])-[H]):[#6]:1-[H])-[H])-[H])-[#6](-[#8]-[H])=[#8])-[H]', '[#8](-[#6]1:[#6](:[#6](:[#6](:[#6](-[#7@+](-[H])(-[H])-[H]):[#6]:1-[H])-[H])-[H])-[#6](=[#8])-[#8-])-[H]']","['InChI=1S/C7H7NO3/c8-4-1-2-5(7(10)11)6(9)3-4/h1-3,9H,8H2,(H,10,11)']",['WUBBRNOQWQTFEX-UHFFFAOYSA-N']
4aminosalicylic_neut->an,3.73,4-aminosalicylic acid,profiles of drug substances excipiends and related (A),"['[H]OC(=O)c1c([H])c([H])c(N([H])[H])c([H])c1O[H]', '[H]Oc1c([H])c([N+]([H])([H])[H])c([H])c([H])c1C(=O)[O-]']","['[#8](-[#6]1:[#6](:[#6](:[#6](:[#6](-[#7](-[H])-[H]):[#6]:1-[H])-[H])-[H])-[#6](-[#8]-[H])=[#8])-[H]', '[#8](-[#6]1:[#6](:[#6](:[#6](:[#6](-[#7@+](-[H])(-[H])-[H]):[#6]:1-[H])-[H])-[H])-[#6](=[#8])-[#8-])-[H]']","['InChI=1S/C7H7NO3/c8-4-1-2-5(7(10)11)6(9)3-4/h1-3,9H,8H2,(H,10,11)']",['WUBBRNOQWQTFEX-UHFFFAOYSA-N']
4azaindole_cation->neut,6.9,4-azaindole,10.1007/s00894-018-3892-4,"['[H]c1nc2c([H])c([H])n([H])c2c([H])c1[H]', '[H]c1nc2c([H])c([H])c([H])n([H])c-2c1[H]']","['[#6]12:[#6](:[#6](:[#6](:[#6](-[H]):[#7]:1)-[H])-[H]):[#7](:[#6](:[#6]:2-[H])-[H])-[H]', '[#6]12-[#6](:[#6](:[#6](:[#6](-[H]):[#7]:1-[H])-[H])-[H]):[#7]:[#6](:[#6]:2-[H])-[H]']","['InChI=1S/C7H6N2/c1-2-6-7(8-4-1)3-5-9-6/h1-5,9H', 'InChI=1S/C7H6N2/c1-2-6-7(8-4-1)3-5-9-6/h1-5,8H']","['XWIYUCRMWCHYJR-UHFFFAOYSA-N', 'QUYZZTTYATWSRY-UHFFFAOYSA-N']"
4bromoaniline_cation->neut,3.88,4 bromoaniline,Lange's handbook of chemistry,['[H]c1c([H])c(N([H])[H])c([H])c([H])c1Br'],['[#35]-[#6]1:[#6](:[#6](:[#6](-[#7](-[H])-[H]):[#6](:[#6]:1-[H])-[H])-[H])-[H]'],"['InChI=1S/C6H6BrN/c7-5-1-3-6(8)4-2-5/h1-4H,8H2']",['WDFQBORIUYODSI-UHFFFAOYSA-N']
4bromobenzoic_neut->an,3.99,4-bromobenzoic acid,Lange's handbook of chemistry,['[H]OC(=O)c1c([H])c([H])c(Br)c([H])c1[H]'],['[#35]-[#6]1:[#6](:[#6](:[#6](:[#6](:[#6]:1-[H])-[H])-[#6](-[#8]-[H])=[#8])-[H])-[H]'],"['InChI=1S/C7H5BrO2/c8-6-3-1-5(2-4-6)7(9)10/h1-4H,(H,9,10)']",['TUXYZHVUPGXXQG-UHFFFAOYSA-N']
4bromophenol_neut->an,9.34,4-bromophenol,Lange's handbook of chemistry,['[H]Oc1c([H])c([H])c(Br)c([H])c1[H]'],['[#35]-[#6]1:[#6](:[#6](:[#6](-[#8]-[H]):[#6](:[#6]:1-[H])-[H])-[H])-[H]'],"['InChI=1S/C6H5BrO/c7-5-1-3-6(8)4-2-5/h1-4,8H']",['GZFGOTFRPZRKDS-UHFFFAOYSA-N']
4bromophenylphosphonic_an->2an,6.83,4-bromophenylphosphonic acid,Lange's handbook of chemistry,['[H]OP(=O)(O[H])c1c([H])c([H])c(Br)c([H])c1[H]'],['[#8](-[#15@](-[#8]-[H])(=[#8])-[#6]1:[#6](:[#6](:[#6](:[#6](:[#6]:1-[H])-[H])-[#35])-[H])-[H])-[H]'],"['InChI=1S/C6H6BrO3P/c7-5-1-3-6(4-2-5)11(8,9)10/h1-4H,(H2,8,9,10)']",['XDGIQCFWQNHSMV-UHFFFAOYSA-N']
4bromophenylphosphonic_neut->an,1.6,4-bromophenylphosphonic acid,Lange's handbook of chemistry,['[H]OP(=O)(O[H])c1c([H])c([H])c(Br)c([H])c1[H]'],['[#8](-[#15@](-[#8]-[H])(=[#8])-[#6]1:[#6](:[#6](:[#6](:[#6](:[#6]:1-[H])-[H])-[#35])-[H])-[H])-[H]'],"['InChI=1S/C6H6BrO3P/c7-5-1-3-6(4-2-5)11(8,9)10/h1-4H,(H2,8,9,10)']",['XDGIQCFWQNHSMV-UHFFFAOYSA-N']
4bromopyridine_cation->neut,3.71,4-bromopyridine,Lange's handbook of chemistry,['[H]c1nc([H])c([H])c(Br)c1[H]'],['[#6]1(:[#6](-[H]):[#7]:[#6](:[#6](:[#6]:1-[#35])-[H])-[H])-[H]'],['InChI=1S/C5H4BrN/c6-5-1-3-7-4-2-5/h1-4H'],['BSDGZUDFPKIYQG-UHFFFAOYSA-N']