compn,pKa,correct name,reference,smiles,smarts,inchi,inchiKey
9methyluric_neut->an,5.77,9-methyluric acid,10.1007/s00894-018-3892-4,['[H]n1c(=O)c2c(n([H])c1=O)n(C([H])([H])[H])c(=O)n2[H]'],['[#6]12:[#6](:[#6](=[#8]):[#7](:[#6](=[#8]):[#7]:1-[H])-[H]):[#7](:[#6](=[#8]):[#7]:2-[#6@@](-[H])(-[H])-[H])-[H]'],"['InChI=1S/C6H6N4O3/c1-10-3-2(7-6(10)13)4(11)9-5(12)8-3/h1H3,(H,7,13)(H2,8,9,11,12)']",['XJEJWDFDVPDMAS-UHFFFAOYSA-N']
9methylxanthine_neut->an,6.25,9-methylxanthine,Lange's handbook of chemistry,"['[H]Oc1nc([O-])nc2c1[n+]([H])c([H])n2C([H])([H])[H]', '[H]c1nc2c(=O)n([H])c(=O)n([H])c2n1C([H])([H])[H]', '[H]Oc1nc(=O)n([H])c2c1nc([H])n2C([H])([H])[H]', '[H]Oc1nc([O-])c2c(n1)n(C([H])([H])[H])c([H])[n+]2[H]', '[H]c1n(C([H])([H])[H])c2nc([O-])n([H])c(=O)c2[n+]1[H]', '[H]Oc1c2nc([H])n(C([H])([H])[H])c2nc(=O)n1[H]', '[H]Oc1nc(O[H])c2nc([H])n(C([H])([H])[H])c2n1', '[H]Oc1nc2c(nc([H])n2C([H])([H])[H])c(=O)n1[H]', '[H]c1n(C([H])([H])[H])c2c(c(=O)nc([O-])n2[H])[n+]1[H]', '[H]Oc1nc(=O)c2nc([H])n(C([H])([H])[H])c2n1[H]']","['[#8](-[#6]1:[#7]:[#6](-[#8-]):[#7]:[#6]2:[#7](:[#6](:[#7+](:[#6]:2:1)-[H])-[H])-[#6@@](-[H])(-[H])-[H])-[H]', '[#8]=[#6]1:[#7](:[#6](=[#8]):[#7](:[#6]2:[#7](:[#6](:[#7]:[#6]:2:1)-[H])-[#6@@](-[H])(-[H])-[H])-[H])-[H]', '[#8](-[#6]1:[#7]:[#6](=[#8]):[#7](:[#6]2:[#7](:[#6](:[#7]:[#6]:2:1)-[H])-[#6@@](-[H])(-[H])-[H])-[H])-[H]', '[#8]-[#6]1:[#7]:[#6](-[#8]-[H]):[#7]:[#6]2:[#7](:[#6](:[#7+](:[#6]:2:1)-[H])-[H])-[#6@@](-[H])(-[H])-[H]', '[#8]=[#6]1:[#7](:[#6](-[#8-]):[#7]:[#6]2:[#7](:[#6](:[#7+](:[#6]:2:1)-[H])-[H])-[#6@@](-[H])(-[H])-[H])-[H]', '[#8](-[#6]1:[#7](:[#6](=[#8]):[#7]:[#6]2:[#7](:[#6](:[#7]:[#6]:2:1)-[H])-[#6@@](-[H])(-[H])-[H])-[H])-[H]', '[#8](-[#6]1:[#7]:[#6](-[#8]-[H]):[#7]:[#6]2:[#7](:[#6](:[#7]:[#6]:2:1)-[H])-[#6@@](-[H])(-[H])-[H])-[H]', '[#8]=[#6]1:[#7](:[#6](-[#8]-[H]):[#7]:[#6]2:[#7](:[#6](:[#7]:[#6]:2:1)-[H])-[#6@@](-[H])(-[H])-[H])-[H]', '[#8]=[#6]1:[#7]:[#6](-[#8-]):[#7](:[#6]2:[#7](:[#6](:[#7+](:[#6]:2:1)-[H])-[H])-[#6@@](-[H])(-[H])-[H])-[H]', '[#8]=[#6]1:[#7]:[#6](-[#8]-[H]):[#7](:[#6]2:[#7](:[#6](:[#7]:[#6]:2:1)-[H])-[#6@@](-[H])(-[H])-[H])-[H]']","['InChI=1S/C6H6N4O2/c1-10-2-7-3-4(10)8-6(12)9-5(3)11/h2H,1H3,(H2,8,9,11,12)']",['DHNIKYWYTSMDDA-UHFFFAOYSA-N']
aaatrifluoromcresol_neut->an,8.95,"a,a,a-trifluoro-m-cresol",Lange's handbook of chemistry,['[H]Oc1c([H])c([H])c([H])c(C(F)(F)F)c1[H]'],['[#9]-[#6@](-[#9])(-[#9])-[#6]1:[#6](:[#6](-[#8]-[H]):[#6](:[#6](:[#6]:1-[H])-[H])-[H])-[H]'],"['InChI=1S/C7H5F3O/c8-7(9,10)5-2-1-3-6(11)4-5/h1-4,11H']",['UGEJOEBBMPOJMT-UHFFFAOYSA-N']
abietic_neut->an,4.94,abietic acid,"Guangzhou Huagong (2012), 40(9), 141-142",['[H]OC(=O)[C@]1(C([H])([H])[H])C([H])([H])C([H])([H])C([H])([H])[C@@]2(C([H])([H])[H])[C@@]1([H])C([H])([H])C([H])=C1C([H])=C(C([H])(C([H])([H])[H])C([H])([H])[H])C([H])([H])C([H])([H])[C@@]12[H]'],['[#8](-[#6](=[#8])-[#6@]1(-[#6@]2(-[#6@@](-[#6@@]3(-[#6](=[#6](-[#6@@]-2(-[H])-[H])-[H])-[#6](=[#6](-[#6@@](-[#6@@]-3(-[H])-[H])(-[H])-[H])-[#6@@](-[#6@](-[H])(-[H])-[H])(-[#6@](-[H])(-[H])-[H])-[H])-[H])-[H])(-[#6@](-[#6@](-[#6@@]-1(-[H])-[H])(-[H])-[H])(-[H])-[H])-[#6@@](-[H])(-[H])-[H])-[H])-[#6@@](-[H])(-[H])-[H])-[H]'],"['InChI=1S/C20H30O2/c1-13(2)14-6-8-16-15(12-14)7-9-17-19(16,3)10-5-11-20(17,4)18(21)22/h7,12-13,16-17H,5-6,8-11H2,1-4H3,(H,21,22)/t16-,17+,19+,20+/m0/s1']",['RSWGJHLUYNHPMX-ONCXSQPRSA-N']
acetamidine_cation->neut,12.2,acetamidine,10.1002/jcc.23068,"['[H]/N=C(\\N([H])[H])C([H])([H])[H]', '[H]C([H])=C(N([H])[H])N([H])[H]', '[H]/N=C(/N([H])[H])C([H])([H])[H]']","['[#6](=[#7]\\[H])(\\[#7](-[H])-[H])-[#6@@](-[H])(-[H])-[H]', '[#6](-[#7](-[H])-[H])(-[#7](-[H])-[H])=[#6](-[H])-[H]', '[#6](=[#7]/[H])(\\[#7](-[H])-[H])-[#6@@](-[H])(-[H])-[H]']","['InChI=1S/C2H6N2/c1-2(3)4/h1H3,(H3,3,4)', 'InChI=1S/C2H6N2/c1-2(3)4/h1,3-4H2']","['OQLZINXFSUDMHM-UHFFFAOYSA-N', 'BSGRLBPZSRZQOR-UHFFFAOYSA-N']"
acetamidopyridine_cation->neut,4.37,acetamidopyridine,Lange's handbook of chemistry,['[H]c1nc(N([H])C(=O)C([H])([H])[H])c([H])c([H])c1[H]'],['[#8]=[#6](-[#7](-[#6]1:[#7]:[#6](:[#6](:[#6](:[#6]:1-[H])-[H])-[H])-[H])-[H])-[#6@](-[H])(-[H])-[H]'],"['InChI=1S/C7H8N2O/c1-6(10)9-7-4-2-3-5-8-7/h2-5H,1H3,(H,8,9,10)']",['QROKOTBWFZITJZ-UHFFFAOYSA-N']
acetic_neut->an,4.76,iodoacetic acid,Lange's handbook of chemistry,['[H]OC(=O)C([H])([H])[H]'],['[#6](=[#8])(-[#8]-[H])-[#6@@](-[H])(-[H])-[H]'],"['InChI=1S/C2H4O2/c1-2(3)4/h1H3,(H,3,4)']",['QTBSBXVTEAMEQO-UHFFFAOYSA-N']
acetohydrazine_cation->neut,3.24,acetohydrazine,Lange's handbook of chemistry,['[H]N([H])N([H])C(=O)C([H])([H])[H]'],['[#8]=[#6](-[#7](-[#7](-[H])-[H])-[H])-[#6@@](-[H])(-[H])-[H]'],"['InChI=1S/C2H6N2O/c1-2(5)4-3/h3H2,1H3,(H,4,5)']",['OFLXLNCGODUUOT-UHFFFAOYSA-N']
acetohydroxamic_neut->an,9.4,acetohydroxamic acid,Lange's handbook of chemistry,['[H]ON([H])C(=O)C([H])([H])[H]'],['[#8](-[#7](-[#6](=[#8])-[#6@@](-[H])(-[H])-[H])-[H])-[H]'],"['InChI=1S/C2H5NO2/c1-2(4)3-5/h5H,1H3,(H,3,4)']",['RRUDCFGSUDOHDG-UHFFFAOYSA-N']
acetoneoxime_neut->an,12.2,acetone oxime,Lange's handbook of chemistry,['[H]ON=C(C([H])([H])[H])C([H])([H])[H]'],['[#8](-[#7]=[#6](-[#6@@](-[H])(-[H])-[H])-[#6@@](-[H])(-[H])-[H])-[H]'],"['InChI=1S/C3H7NO/c1-3(2)4-5/h5H,1-2H3']",['PXAJQJMDEXJWFB-UHFFFAOYSA-N']
acetylacetic_neut->an,3.58,acetylacetic acid,Lange's handbook of chemistry,['[H]OC(=O)C([H])([H])C(=O)C([H])([H])[H]'],['[#8]=[#6](-[#6@](-[#6](-[#8]-[H])=[#8])(-[H])-[H])-[#6@@](-[H])(-[H])-[H]'],"['InChI=1S/C4H6O3/c1-3(5)2-4(6)7/h2H2,1H3,(H,6,7)']",['WDJHALXBUFZDSR-UHFFFAOYSA-N']
acetylenedicarboxylic_an->2an,2.34,acetylene dicarboxylic acid,10.1039/d2cc02665a,['[H]OC(=O)C#CC(=O)O[H]'],['[#8](-[#6](=[#8])-[#6]#[#6]-[#6](-[#8]-[H])=[#8])-[H]'],"['InChI=1S/C4H2O4/c5-3(6)1-2-4(7)8/h(H,5,6)(H,7,8)']",['YTIVTFGABIZHHX-UHFFFAOYSA-N']
acetylenedicarboxylic_neut->an,0.66,acetylene dicarboxylic acid,10.1039/d2cc02665a,['[H]OC(=O)C#CC(=O)O[H]'],['[#8](-[#6](=[#8])-[#6]#[#6]-[#6](-[#8]-[H])=[#8])-[H]'],"['InChI=1S/C4H2O4/c5-3(6)1-2-4(7)8/h(H,5,6)(H,7,8)']",['YTIVTFGABIZHHX-UHFFFAOYSA-N']
acetylguanidine_cation->neut,8.23,acetylguanidine,Lange's handbook of chemistry,"['[H]/N=C(\\N=C(/O[H])C([H])([H])[H])N([H])[H]', '[H]/N=C(/N([H])[H])N([H])C(=O)C([H])([H])[H]', '[H]/N=C(\\N([H])[H])N([H])C(=O)C([H])([H])[H]', '[H]/N=C(/N([H])[H])N([H])C(O[H])=C([H])[H]', '[H]C([H])=C([O-])[N+]([H])=C(N([H])[H])N([H])[H]', '[H]/N=C(/N=C(\\[O-])C([H])([H])[H])[N+]([H])([H])[H]', '[H]/N=C(\\N([H])[H])N([H])C(O[H])=C([H])[H]', '[H]/N=C(\\N=C(/[O-])C([H])([H])[H])[N+]([H])([H])[H]', '[H]N([H])C(=NC(=O)C([H])([H])[H])N([H])[H]', '[H]OC(N=C(N([H])[H])N([H])[H])=C([H])[H]']","['[#6](=[#7]/[H])(-[#7](-[H])-[H])/[#7]=[#6](\\[#8]-[H])-[#6@@](-[H])(-[H])-[H]', '[#6](=[#7]/[H])(\\[#7](-[H])-[H])-[#7](-[#6](=[#8])-[#6@@](-[H])(-[H])-[H])-[H]', '[#6](\\[#7](-[H])-[H])(=[#7]\\[H])-[#7](-[#6](=[#8])-[#6@@](-[H])(-[H])-[H])-[H]', '[#6](-[#7](-[H])-[H])(=[#7]/[H])/[#7]=[#6](\\[#8]-[H])-[#6@@](-[H])(-[H])-[H]', '[#6](=[#7]/[H])(\\[#7](-[H])-[H])-[#7](-[#6](-[#8]-[H])=[#6](-[H])-[H])-[H]', '[#6](-[#7](-[H])-[H])(-[#7](-[H])-[H])=[#7+](-[#6](-[#8-])=[#6](-[H])-[H])-[H]', '[#6](-[#7@@+](-[H])(-[H])-[H])(=[#7]\\[H])/[#7]=[#6](\\[#8-])-[#6@@](-[H])(-[H])-[H]', '[#6](\\[#7](-[H])-[H])(=[#7]\\[H])-[#7](-[#6](-[#8]-[H])=[#6](-[H])-[H])-[H]', '[#6](-[#7@@+](-[H])(-[H])-[H])(=[#7]/[H])/[#7]=[#6](\\[#8-])-[#6@@](-[H])(-[H])-[H]', '[#6](-[#7](-[H])-[H])(-[#7](-[H])-[H])=[#7]-[#6](=[#8])-[#6@@](-[H])(-[H])-[H]', '[#6](-[#7](-[H])-[H])(-[#7](-[H])-[H])=[#7]-[#6](-[#8]-[H])=[#6](-[H])-[H]']","['InChI=1S/C3H7N3O/c1-2(7)6-3(4)5/h1H3,(H4,4,5,6,7)', 'InChI=1S/C3H7N3O/c1-2(7)6-3(4)5/h7H,1H2,(H4,4,5,6)']","['NGGXACLSAZXJGM-UHFFFAOYSA-N', 'CPEGLTDKCAYDTR-UHFFFAOYSA-N']"
acetylpiperazine_cation->neut,7.94,acetylpiperazine,10.1002/jcc.23068,['[H]N1C([H])([H])C([H])([H])N(C(=O)C([H])([H])[H])C([H])([H])C1([H])[H]'],['[H]-[#7]1-[#6@](-[#6@@](-[H])(-[H])-[#7](-[#6@](-[#6@]-1(-[H])-[H])(-[H])-[H])-[#6](=[#8])-[#6@@](-[H])(-[H])-[H])(-[H])-[H]'],"['InChI=1S/C6H12N2O/c1-6(9)8-4-2-7-3-5-8/h7H,2-5H2,1H3']",['PKDPUENCROCRCH-UHFFFAOYSA-N']
acetylsalicylic_neut->an,3.47,acetylsalicylic acid,profiles of drug substances excipiends and related (A),['[H]OC(=O)c1c([H])c([H])c([H])c([H])c1OC(=O)C([H])([H])[H]'],['[#8](-[#6]1:[#6](:[#6](:[#6](:[#6](:[#6]:1-[H])-[H])-[H])-[H])-[#6](-[#8]-[H])=[#8])-[#6](=[#8])-[#6@](-[H])(-[H])-[H]'],"['InChI=1S/C9H8O4/c1-6(10)13-8-5-3-2-4-7(8)9(11)12/h2-5H,1H3,(H,11,12)']",['BSYNRYMUTXBXSQ-UHFFFAOYSA-N']
achlorocrotonic_neut->an,3.14,2-chlorocrotonic acid,Lange's handbook of chemistry,['[H]OC(=O)/C(Cl)=C(\\[H])C([H])([H])[H]'],['[#6](=[#6](\\[#6](=[#8])-[#8]-[H])-[#17])(\\[H])-[#6@@](-[H])(-[H])-[H]'],"['InChI=1S/C4H5ClO2/c1-2-3(5)4(6)7/h2H,1H3,(H,6,7)/b3-2-']",['WMDBQMYVAIBBDH-IHWYPQMZSA-N']
acridine_cation->neut,5.6,acridine,Lange's handbook of chemistry,['[H]c1c([H])c([H])c2c([H])c3c([H])c([H])c([H])c([H])c3nc2c1[H]'],['[#6]1(:[#6](:[#6]2:[#6](:[#6](:[#6]:1-[H])-[H]):[#6](:[#6]1:[#6](:[#6](-[H]):[#6](:[#6](:[#6]:1-[H])-[H])-[H]):[#7]:2)-[H])-[H])-[H]'],['InChI=1S/C13H9N/c1-3-7-12-10(5-1)9-11-6-2-4-8-13(11)14-12/h1-9H'],['DZBUGLKDJFMEHC-UHFFFAOYSA-N']
acrylic_neut->an,4.26,acrylic acid,Lange's handbook of chemistry,['[H]OC(=O)C([H])=C([H])[H]'],['[#6](=[#6](-[H])-[#6](=[#8])-[#8]-[H])(-[H])-[H]'],"['InChI=1S/C3H4O2/c1-2-3(4)5/h2H,1H2,(H,4,5)']",['NIXOWILDQLNWCW-UHFFFAOYSA-N']
adenine_neut->an,9.75,adenine,Lange's handbook of chemistry,"['[H]/N=c1\\nc([H])nc2[c-]1n([H])c([H])[n+]2[H]', '[H]/N=c1\\nc([H])n([H])c2c1nc([H])n2[H]', '[H]c1nc2c(N([H])[H])nc([H])n([H])c-2n1', '[H]/N=c1\\c2nc([H])n([H])c2nc([H])n1[H]', '[H]/N=c1/c2c(nc([H])n1[H])nc([H])n2[H]', '[H]c1nc(N([H])[H])c2c(n1)nc([H])n2[H]', '[H]/N=c1\\nc([H])n([H])c2nc([H])n([H])c12', '[H]c1nc2nc([H])n([H])c(N([H])[H])c-2n1', '[H]c1nc(N([H])[H])c2nc([H])n([H])c2n1']","['[#7]1(:[#6](:[#7](:[#6-]2:[#6](=[#7]/[H]):[#7]:[#6](:[#7]:[#6]:1:2)-[H])-[H])-[H])-[H]', '[#7]1(:[#6](:[#7]:[#6]2:[#6](=[#7]/[H]):[#7]:[#6](:[#7](:[#6]:1:2)-[H])-[H])-[H])-[H]', '[#7]1:[#6](:[#7]:[#6]2:[#6](-[#7](-[H])-[H]):[#7]:[#6](:[#7](:[#6]:1-2)-[H])-[H])-[H]', '[#7]1(:[#6](:[#7]:[#6]2:[#6](=[#7]\\[H]):[#7](:[#6](:[#7]:[#6]:1:2)-[H])-[H])-[H])-[H]', '[#7]1:[#6](:[#7](:[#6]2:[#6](=[#7]/[H]):[#7](:[#6](:[#7]:[#6]:1:2)-[H])-[H])-[H])-[H]', '[#7]1:[#6](:[#7](:[#6]2:[#6](-[#7](-[H])-[H]):[#7]:[#6](:[#7]:[#6]:1:2)-[H])-[H])-[H]', '[#7]1:[#6](:[#7](:[#6]2:[#6](=[#7]/[H]):[#7]:[#6](:[#7](:[#6]:1:2)-[H])-[H])-[H])-[H]', '[#7]1:[#6](:[#7]:[#6]2:[#6](-[#7](-[H])-[H]):[#7](:[#6](:[#7]:[#6]:1-2)-[H])-[H])-[H]', '[#7]1(:[#6](:[#7]:[#6]2:[#6](-[#7](-[H])-[H]):[#7]:[#6](:[#7]:[#6]:1:2)-[H])-[H])-[H]']","['InChI=1S/C5H4N5/c6-4-3-5(9-1-7-3)10-2-8-4/h1-2H,(H2,6,7,8,9,10)/q-1/p+1', 'InChI=1S/C5H5N5/c6-4-3-5(9-1-7-3)10-2-8-4/h1-2H,(H3,6,7,8,9,10)']","['BKNZZPDKTCXPCY-UHFFFAOYSA-O', 'GFFGJBXGBJISGV-UHFFFAOYSA-N']"
adenineNoxyde_neut->an,8.845,adenine-n1-oxide,"D. D. Perrin. J. Am. Chem. Soc. 82, 5642 (1960).","['[H]c1nc2c(N([H])[H])n([O-])c([H])[n+]([H])c-2n1', '[H]/N=c1/c2c(nc([H])n2[H])[n+]([H])c([H])n1[O-]', '[H]c1nc2c(nc([H])n2[H])c(=[N+]([H])[H])n1[O-]', '[H]/N=c1/c2c(nc([H])n1[O-])[n+]([H])c([H])n2[H]', '[H]/N=C1\\C2=[N+]=C([H])N=C2N([H])[C-]([H])N1O[H]', '[H]/N=c1/c2c(nc([H])n1O[H])nc([H])n2[H]', '[H]On1c([H])nc2nc([H])nc-2c1N([H])[H]', '[H]/N=c1/c2nc([H])n([H])c2nc([H])n1O[H]', '[H]c1nc2nc([H])n([H])c2c(=[N+]([H])[H])n1[O-]']","['[#8]-[#7]1:[#6](-[#7](-[H])-[H]):[#6]2:[#7]:[#6](:[#7]:[#6]-2:[#7+](:[#6]:1-[H])-[H])-[H]', '[#8]-[#7]1:[#6](=[#7]\\[H]):[#6]2:[#7](:[#6](:[#7]:[#6]:2:[#7+](:[#6]:1-[H])-[H])-[H])-[H]', '[#8]-[#7]1:[#6](=[#7+](-[H])-[H]):[#6]2:[#7]:[#6](:[#7](:[#6]:2:[#7]:[#6]:1-[H])-[H])-[H]', '[#8]-[#7]1:[#6](=[#7]\\[H]):[#6]2:[#7](:[#6](:[#7+](:[#6]:2:[#7]:[#6]:1-[H])-[H])-[H])-[H]', '[#8](-[#7]1/[#6](=[#7]/[H])-[#6]2=[#7+]=[#6](-[#7]=[#6]-2-[#7](-[#6-]-1-[H])-[H])-[H])-[H]', '[#8](-[#7]1:[#6](=[#7]\\[H]):[#6]2:[#7](:[#6](:[#7]:[#6]:2:[#7]:[#6]:1-[H])-[H])-[H])-[H]', '[#8](-[#7]1:[#6](-[#7](-[H])-[H]):[#6]2:[#7]:[#6](:[#7]:[#6]-2:[#7]:[#6]:1-[H])-[H])-[H]', '[#8](-[#7]1:[#6](=[#7]\\[H]):[#6]2:[#7]:[#6](:[#7](:[#6]:2:[#7]:[#6]:1-[H])-[H])-[H])-[H]', '[#8]-[#7]1:[#6](=[#7+](-[H])-[H]):[#6]2:[#7](:[#6](:[#7]:[#6]:2:[#7]:[#6]:1-[H])-[H])-[H]']","['InChI=1S/C5H4N5O/c6-4-3-5(8-1-7-3)9-2-10(4)11/h1-2H,6H2/q-1/p+1', 'InChI=1S/C5H4N5O/c6-4-3-5(8-1-7-3)9-2-10(4)11/h1-2,6H,(H,7,8)/q-1/p+1/b6-4-', 'InChI=1S/C5H4N5O/c6-4-3-5(8-1-7-3)9-2-10(4)11/h1-2,6H,(H,7,8)/q-1/p+1', 'InChI=1S/C5H4N5O/c6-4-3-5(8-1-7-3)9-2-10(4)11/h1-2,6,11H/q-1/p+1/b6-4+', 'InChI=1S/C5H5N5O/c6-4-3-5(8-1-7-3)9-2-10(4)11/h1-2,6,11H,(H,7,8)/b6-4-', 'InChI=1S/C5H5N5O/c6-4-3-5(8-1-7-3)9-2-10(4)11/h1-2,11H,6H2']","['DCGYVHJIAWRONQ-UHFFFAOYSA-O', 'RPACZEHPTAHIKR-XQRVVYSFSA-O', 'RPACZEHPTAHIKR-UHFFFAOYSA-O', 'VFKYIUVFVXPKOE-GQCTYLIASA-O', 'PUJALHQKXFOENF-XQRVVYSFSA-N', 'FSEXIIUMRZGIDN-UHFFFAOYSA-N']"
adrenaline_cation->neut,8.64,adrenaline,doi.org/10.1039/JR9620001776,['[H]Oc1c([H])c([H])c([C@]([H])(O[H])C([H])([H])N([H])C([H])([H])[H])c([H])c1O[H]'],['[#6]1(:[#6](:[#6](:[#6](:[#6](:[#6]:1-[H])-[#6@@](-[H])(-[#6@](-[H])(-[H])-[#7](-[H])-[#6@](-[H])(-[H])-[H])-[#8]-[H])-[H])-[H])-[#8]-[H])-[#8]-[H]'],"['InChI=1S/C9H13NO3/c1-10-5-9(13)6-2-3-7(11)8(12)4-6/h2-4,9-13H,5H2,1H3/t9-/m1/s1']",['UCTWMZQNUQWSLP-SECBINFHSA-N']
adrenaline_neut->an,9.96,adrenaline,doi.org/10.1039/JR9620001776,['[H]Oc1c([H])c([H])c([C@]([H])(O[H])C([H])([H])N([H])C([H])([H])[H])c([H])c1O[H]'],['[#6]1(:[#6](:[#6](:[#6](:[#6](:[#6]:1-[H])-[#6@@](-[H])(-[#6@](-[H])(-[H])-[#7](-[H])-[#6@](-[H])(-[H])-[H])-[#8]-[H])-[H])-[H])-[#8]-[H])-[#8]-[H]'],"['InChI=1S/C9H13NO3/c1-10-5-9(13)6-2-3-7(11)8(12)4-6/h2-4,9-13H,5H2,1H3/t9-/m1/s1']",['UCTWMZQNUQWSLP-SECBINFHSA-N']
afluoroacrilic_neut->an,2.55,2-fluoroacrylic acid,Lange's handbook of chemistry,['[H]OC(=O)C(F)=C([H])[H]'],['[#6](=[#6](-[#6](=[#8])-[#8]-[H])-[#9])(-[H])-[H]'],"['InChI=1S/C3H3FO2/c1-2(4)3(5)6/h1H2,(H,5,6)']",['TYCFGHUTYSLISP-UHFFFAOYSA-N']
alanine_cation->neut,2.34,alanine,Lange's handbook of chemistry,['[H]C([H])([H])[C@@]([H])(C(=O)[O-])[N+]([H])([H])[H]'],['[H]-[#7@](-[#6@@](-[H])(-[#6@@](-[H])(-[H])-[H])-[#6](=[#8])-[#8-])(-[H])-[H]'],"['InChI=1S/C3H7NO2/c1-2(4)3(5)6/h2H,4H2,1H3,(H,5,6)/t2-/m0/s1']",['QNAYBMKLOCPYGJ-REOHCLBHSA-N']
alanine_neut->an,9.69,alanine,Lange's handbook of chemistry,['[H]C([H])([H])[C@@]([H])(C(=O)[O-])[N+]([H])([H])[H]'],['[H]-[#7@](-[#6@@](-[H])(-[#6@@](-[H])(-[H])-[H])-[#6](=[#8])-[#8-])(-[H])-[H]'],"['InChI=1S/C3H7NO2/c1-2(4)3(5)6/h2H,4H2,1H3,(H,5,6)/t2-/m0/s1']",['QNAYBMKLOCPYGJ-REOHCLBHSA-N']
alanylalanine_cation->neut,3.13,l-alanyl-l-alanine,Lange's handbook of chemistry,['[H]N(C(=O)[C@@]([H])(C([H])([H])[H])[N+]([H])([H])[H])[C@@]([H])(C(=O)[O-])C([H])([H])[H]'],['[#8]=[#6](-[#7](-[#6@](-[#6@@](-[H])(-[H])-[H])(-[#6](=[#8])-[#8-])-[H])-[H])-[#6@](-[#7@+](-[H])(-[H])-[H])(-[#6@](-[H])(-[H])-[H])-[H]'],"['InChI=1S/C6H12N2O3/c1-3(7)5(9)8-4(2)6(10)11/h3-4H,7H2,1-2H3,(H,8,9)(H,10,11)/t3-,4-/m1/s1']",['DEFJQIDDEAULHB-QWWZWVQMSA-N']
alanylalanine_neut->an,8.13,l-alanyl-l-alanine,Lange's handbook of chemistry,['[H]N(C(=O)[C@@]([H])(C([H])([H])[H])[N+]([H])([H])[H])[C@@]([H])(C(=O)[O-])C([H])([H])[H]'],['[#8]=[#6](-[#7](-[#6@](-[#6@@](-[H])(-[H])-[H])(-[#6](=[#8])-[#8-])-[H])-[H])-[#6@](-[#7@+](-[H])(-[H])-[H])(-[#6@](-[H])(-[H])-[H])-[H]'],"['InChI=1S/C6H12N2O3/c1-3(7)5(9)8-4(2)6(10)11/h3-4H,7H2,1-2H3,(H,8,9)(H,10,11)/t3-,4-/m1/s1']",['DEFJQIDDEAULHB-QWWZWVQMSA-N']
alaninemethylester_cation->neut,7.74,alanine methyl ester,Lange's handbook of chemistry,['[H]N([H])[C@]([H])(C(=O)OC([H])([H])[H])C([H])([H])[H]'],['[#8](-[#6](=[#8])-[#6@@](-[#7](-[H])-[H])(-[#6@@](-[H])(-[H])-[H])-[H])-[#6@](-[H])(-[H])-[H]'],"['InChI=1S/C4H9NO2/c1-3(5)4(6)7-2/h3H,5H2,1-2H3/t3-/m0/s1']",['DWKPPFQULDPWHX-VKHMYHEASA-N']
alanylglycine_cation->neut,3.11,alanylglycine,Lange's handbook of chemistry,['[H]N(C(=O)[C@@]([H])(C([H])([H])[H])[N+]([H])([H])[H])C([H])([H])C(=O)[O-]'],['[#8]=[#6](-[#7](-[#6@](-[#6](=[#8])-[#8-])(-[H])-[H])-[H])-[#6@](-[#7@+](-[H])(-[H])-[H])(-[#6@](-[H])(-[H])-[H])-[H]'],"['InChI=1S/C5H10N2O3/c1-3(6)5(10)7-2-4(8)9/h3H,2,6H2,1H3,(H,7,10)(H,8,9)/t3-/m1/s1']",['CXISPYVYMQWFLE-GSVOUGTGSA-N']
alanylglycine_neut->an,8.11,alanylglycine,Lange's handbook of chemistry,['[H]N(C(=O)[C@@]([H])(C([H])([H])[H])[N+]([H])([H])[H])C([H])([H])C(=O)[O-]'],['[#8]=[#6](-[#7](-[#6@](-[#6](=[#8])-[#8-])(-[H])-[H])-[H])-[#6@](-[#7@+](-[H])(-[H])-[H])(-[#6@](-[H])(-[H])-[H])-[H]'],"['InChI=1S/C5H10N2O3/c1-3(6)5(10)7-2-4(8)9/h3H,2,6H2,1H3,(H,7,10)(H,8,9)/t3-/m1/s1']",['CXISPYVYMQWFLE-GSVOUGTGSA-N']
allothreonine_cation->neut,2.11,allothreonine,Lange's handbook of chemistry,['[H]O[C@@]([H])(C([H])([H])[H])[C@@]([H])(C(=O)[O-])[N+]([H])([H])[H]'],['[#8](-[H])-[#6@@](-[#6@](-[H])(-[H])-[H])(-[#6@](-[#7@+](-[H])(-[H])-[H])(-[#6](=[#8])-[#8-])-[H])-[H]'],"['InChI=1S/C4H9NO3/c1-2(6)3(5)4(7)8/h2-3,6H,5H2,1H3,(H,7,8)/t2-,3-/m0/s1']",['AYFVYJQAPQTCCC-HRFVKAFMSA-N']
allothreonine_neut->an,9.1,allothreonine,Lange's handbook of chemistry,['[H]O[C@@]([H])(C([H])([H])[H])[C@@]([H])(C(=O)[O-])[N+]([H])([H])[H]'],['[#8](-[H])-[#6@@](-[#6@](-[H])(-[H])-[H])(-[#6@](-[#7@+](-[H])(-[H])-[H])(-[#6](=[#8])-[#8-])-[H])-[H]'],"['InChI=1S/C4H9NO3/c1-2(6)3(5)4(7)8/h2-3,6H,5H2,1H3,(H,7,8)/t2-,3-/m0/s1']",['AYFVYJQAPQTCCC-HRFVKAFMSA-N']
alloxan_neut->an,6.63,alloxan,Lange's handbook of chemistry,['[H]N1C(=O)C(=O)C(=O)N([H])C1=O'],['[#8]=[#6]1-[#6](=[#8])-[#7](-[#6](=[#8])-[#7](-[#6]-1=[#8])-[H])-[H]'],"['InChI=1S/C4H2N2O4/c7-1-2(8)5-4(10)6-3(1)9/h(H2,5,6,8,9,10)']",['HIMXGTXNXJYFGB-UHFFFAOYSA-N']
allylacetic_neut->an,4.68,allylacetic acid,Lange's handbook of chemistry,['[H]OC(=O)C([H])([H])C([H])([H])C([H])=C([H])[H]'],['[#8](-[#6](=[#8])-[#6@@](-[#6@](-[#6](=[#6](-[H])-[H])-[H])(-[H])-[H])(-[H])-[H])-[H]'],"['InChI=1S/C5H8O2/c1-2-3-4-5(6)7/h2H,1,3-4H2,(H,6,7)']",['HVAMZGADVCBITI-UHFFFAOYSA-N']
allylamine_cation->neut,9.69,allylamine,Lange's handbook of chemistry,['[H]C([H])=C([H])C([H])([H])N([H])[H]'],['[#1]-[#7](-[H])-[#6@@](-[H])(-[H])-[#6](=[#6](-[H])-[H])-[H]'],"['InChI=1S/C3H7N/c1-2-3-4/h2H,1,3-4H2']",['VVJKKWFAADXIJK-UHFFFAOYSA-N']
aminoantipyrine_cation->neut,4.94,aminoantipyrine,Lange's handbook of chemistry,['[H]c1c([H])c([H])c(-n2c(=O)c(N([H])[H])c(C([H])([H])[H])n2C([H])([H])[H])c([H])c1[H]'],['[#8]=[#6]1:[#7](:[#7](:[#6](:[#6]:1-[#7](-[H])-[H])-[#6@](-[H])(-[H])-[H])-[#6@](-[H])(-[H])-[H])-[#6]1:[#6](:[#6](:[#6](:[#6](:[#6]:1-[H])-[H])-[H])-[H])-[H]'],"['InChI=1S/C11H13N3O/c1-8-10(12)11(15)14(13(8)2)9-6-4-3-5-7-9/h3-7H,12H2,1-2H3']",['RLFWWDJHLFCNIJ-UHFFFAOYSA-N']
aminomalonic_neut->an,3.32,aminomalonic acid,doi.org/10.1002/hlca.194502801158,['[H]OC(=O)[C@]([H])(C(=O)[O-])[N+]([H])([H])[H]'],['[#8](-[#6](=[#8])-[#6@@](-[#6](=[#8])-[#8-])(-[H])-[#7@@+](-[H])(-[H])-[H])-[H]'],"['InChI=1S/C3H5NO4/c4-1(2(5)6)3(7)8/h1H,4H2,(H,5,6)(H,7,8)']",['JINBYESILADKFW-UHFFFAOYSA-N']
aminomalonic_an->2an,9.83,aminomalonic acid,doi.org/10.1002/hlca.194502801158,['[H]OC(=O)[C@]([H])(C(=O)[O-])[N+]([H])([H])[H]'],['[#8](-[#6](=[#8])-[#6@@](-[#6](=[#8])-[#8-])(-[H])-[#7@@+](-[H])(-[H])-[H])-[H]'],"['InChI=1S/C3H5NO4/c4-1(2(5)6)3(7)8/h1H,4H2,(H,5,6)(H,7,8)']",['JINBYESILADKFW-UHFFFAOYSA-N']
aminomethylphosphonic_an->2an,10,aminomethylphosphonic acid,https://doi.org/10.1016/j.talanta.2008.12.052,['[H]O[P@@](=O)([O-])C([H])([H])[N+]([H])([H])[H]'],['[#8](-[#15@@](=[#8])(-[#8-])-[#6@@](-[#7@+](-[H])(-[H])-[H])(-[H])-[H])-[H]'],"['InChI=1S/CH6NO3P/c2-1-6(3,4)5/h1-2H2,(H2,3,4,5)']",['MGRVRXRGTBOSHW-UHFFFAOYSA-N']
aminomethylphosphonic_cation->neut,1.8,aminomethylphosphonic acid,https://doi.org/10.1016/j.talanta.2008.12.052,['[H]O[P@@](=O)([O-])C([H])([H])[N+]([H])([H])[H]'],['[#8](-[#15@@](=[#8])(-[#8-])-[#6@@](-[#7@+](-[H])(-[H])-[H])(-[H])-[H])-[H]'],"['InChI=1S/CH6NO3P/c2-1-6(3,4)5/h1-2H2,(H2,3,4,5)']",['MGRVRXRGTBOSHW-UHFFFAOYSA-N']