compn,pKa,correct name,reference,smiles,smarts,inchi,inchiKey
1234benzenetetracarboxylic_neut->an,2.05,"1,2,3,4-benzene-tetracarboxylic acid",Lange's handbook of chemistry,['[H]OC(=O)c1c([H])c([H])c(C(=O)O[H])c(C(=O)O[H])c1C(=O)O[H]'],['[#8]=[#6](-[#8]-[H])-[#6]1:[#6](:[#6](:[#6](:[#6](:[#6]:1-[#6](-[#8]-[H])=[#8])-[#6](=[#8])-[#8]-[H])-[#6](-[#8]-[H])=[#8])-[H])-[H]'],"['InChI=1S/C10H6O8/c11-7(12)3-1-2-4(8(13)14)6(10(17)18)5(3)9(15)16/h1-2H,(H,11,12)(H,13,14)(H,15,16)(H,17,18)']",['GCAIEATUVJFSMC-UHFFFAOYSA-N']
123benzenetricarboxylic_2an->3an,5.87,"1,2,3-benzenetricarboxylic acid",Lange's handbook of chemistry,['[H]OC(=O)c1c([H])c([H])c([H])c(C(=O)O[H])c1C(=O)O[H]'],['[#8](-[#6](=[#8])-[#6]1:[#6](:[#6](:[#6](:[#6](:[#6]:1-[#6](-[#8]-[H])=[#8])-[#6](-[#8]-[H])=[#8])-[H])-[H])-[H])-[H]'],"['InChI=1S/C9H6O6/c10-7(11)4-2-1-3-5(8(12)13)6(4)9(14)15/h1-3H,(H,10,11)(H,12,13)(H,14,15)']",['UJMDYLWCYJJYMO-UHFFFAOYSA-N']
123benzenetricarboxylic_an->2an,4.2,"1,2,3-benzenetricarboxylic acid",Lange's handbook of chemistry,['[H]OC(=O)c1c([H])c([H])c([H])c(C(=O)O[H])c1C(=O)O[H]'],['[#8](-[#6](=[#8])-[#6]1:[#6](:[#6](:[#6](:[#6](:[#6]:1-[#6](-[#8]-[H])=[#8])-[#6](-[#8]-[H])=[#8])-[H])-[H])-[H])-[H]'],"['InChI=1S/C9H6O6/c10-7(11)4-2-1-3-5(8(12)13)6(4)9(14)15/h1-3H,(H,10,11)(H,12,13)(H,14,15)']",['UJMDYLWCYJJYMO-UHFFFAOYSA-N']
123benzenetricarboxylic_neut->an,2.8,"1,2,3-benzenetricarboxylic acid",Lange's handbook of chemistry,['[H]OC(=O)c1c([H])c([H])c([H])c(C(=O)O[H])c1C(=O)O[H]'],['[#8](-[#6](=[#8])-[#6]1:[#6](:[#6](:[#6](:[#6](:[#6]:1-[#6](-[#8]-[H])=[#8])-[#6](-[#8]-[H])=[#8])-[H])-[H])-[H])-[H]'],"['InChI=1S/C9H6O6/c10-7(11)4-2-1-3-5(8(12)13)6(4)9(14)15/h1-3H,(H,10,11)(H,12,13)(H,14,15)']",['UJMDYLWCYJJYMO-UHFFFAOYSA-N']
4pyridinealdoxime_cation->neut,4.73,4-Pyridinealdoxime,"S. F. Mason. J. Chem. Soc. 1960, 22.","['[H]O/N=C(\\[H])c1c([H])c([H])nc([H])c1[H]', '[H]O/N=C(/[H])c1c([H])c([H])nc([H])c1[H]']","['[#8](/[#7]=[#6](/[#6]1:[#6](:[#6](:[#7]:[#6](:[#6]:1-[H])-[H])-[H])-[H])-[H])-[H]', '[#8](/[#7]=[#6](\\[#6]1:[#6](:[#6](:[#7]:[#6](:[#6]:1-[H])-[H])-[H])-[H])-[H])-[H]']","['InChI=1S/C6H6N2O/c9-8-5-6-1-3-7-4-2-6/h1-5,9H/b8-5+', 'InChI=1S/C6H6N2O/c9-8-5-6-1-3-7-4-2-6/h1-5,9H/b8-5-']","['OFYLBLSSPQTTHT-VMPITWQZSA-N', 'OFYLBLSSPQTTHT-YVMONPNESA-N']"
4pyridinealdoxime_neut->an,10.02,4-Pyridinealdoxime,"S. F. Mason. J. Chem. Soc. 1960, 22.","['[H]O/N=C(\\[H])c1c([H])c([H])nc([H])c1[H]', '[H]O/N=C(/[H])c1c([H])c([H])nc([H])c1[H]']","['[#8](/[#7]=[#6](/[#6]1:[#6](:[#6](:[#7]:[#6](:[#6]:1-[H])-[H])-[H])-[H])-[H])-[H]', '[#8](/[#7]=[#6](\\[#6]1:[#6](:[#6](:[#7]:[#6](:[#6]:1-[H])-[H])-[H])-[H])-[H])-[H]']","['InChI=1S/C6H6N2O/c9-8-5-6-1-3-7-4-2-6/h1-5,9H/b8-5+', 'InChI=1S/C6H6N2O/c9-8-5-6-1-3-7-4-2-6/h1-5,9H/b8-5-']","['OFYLBLSSPQTTHT-VMPITWQZSA-N', 'OFYLBLSSPQTTHT-YVMONPNESA-N']"
2pyridinealdoxime_cation->neut,3.56,Pyridine-2-aldoxime,"R. W. Green, I. R. Freer, J. PHys. Chem., 65, 2211 (1961)","['[H]O/N=C(\\[H])c1nc([H])c([H])c([H])c1[H]', '[H]O/N=C(/[H])c1nc([H])c([H])c([H])c1[H]']","['[#8](/[#7]=[#6](/[#6]1:[#7]:[#6](:[#6](:[#6](:[#6]:1-[H])-[H])-[H])-[H])-[H])-[H]', '[#8](/[#7]=[#6](\\[#6]1:[#7]:[#6](:[#6](:[#6](:[#6]:1-[H])-[H])-[H])-[H])-[H])-[H]']","['InChI=1S/C6H6N2O/c9-8-5-6-3-1-2-4-7-6/h1-5,9H/b8-5+', 'InChI=1S/C6H6N2O/c9-8-5-6-3-1-2-4-7-6/h1-5,9H/b8-5-']","['MTFJSAGADRTKCI-VMPITWQZSA-N', 'MTFJSAGADRTKCI-YVMONPNESA-N']"
2pyridinealdoxime_neut->an,10.17,Pyridine-2-aldoxime,"R. W. Green, I. R. Freer, J. PHys. Chem., 65, 2211 (1961)","['[H]O/N=C(\\[H])c1nc([H])c([H])c([H])c1[H]', '[H]O/N=C(/[H])c1nc([H])c([H])c([H])c1[H]']","['[#8](/[#7]=[#6](/[#6]1:[#7]:[#6](:[#6](:[#6](:[#6]:1-[H])-[H])-[H])-[H])-[H])-[H]', '[#8](/[#7]=[#6](\\[#6]1:[#7]:[#6](:[#6](:[#6](:[#6]:1-[H])-[H])-[H])-[H])-[H])-[H]']","['InChI=1S/C6H6N2O/c9-8-5-6-3-1-2-4-7-6/h1-5,9H/b8-5+', 'InChI=1S/C6H6N2O/c9-8-5-6-3-1-2-4-7-6/h1-5,9H/b8-5-']","['MTFJSAGADRTKCI-VMPITWQZSA-N', 'MTFJSAGADRTKCI-YVMONPNESA-N']"
ptolylarsonic_neut->an,3.7,p-tolyl-arsonic acid,10.1021/ja01244a012,['[H]O[As+]([O-])(O[H])[c+]1[c+]([H])[c+]([H])[c-](C([H])([H])[H])[c-]([H])[c-]1[H]'],['[#8](-[H])-[As@+](-[#8]-[H])(-[#8-])-[#6+]1:[#6+](:[#6+](:[#6-](:[#6-](:[#6-]:1-[H])-[H])-[#6@@](-[H])(-[H])-[H])-[H])-[H]'],"['InChI=1S/C7H9AsO3/c1-6-2-4-7(5-3-6)8(9,10)11/h2-5H,1H3,(H2,9,10,11)']",['GODGOGGXLHQPBK-UHFFFAOYSA-N']
ptolylarsonic_an->2an,8.68,p-tolyl-arsonic acid,10.1021/ja01244a012,['[H]O[As+]([O-])(O[H])[c+]1[c+]([H])[c+]([H])[c-](C([H])([H])[H])[c-]([H])[c-]1[H]'],['[#8](-[H])-[As@+](-[#8]-[H])(-[#8-])-[#6+]1:[#6+](:[#6+](:[#6-](:[#6-](:[#6-]:1-[H])-[H])-[#6@@](-[H])(-[H])-[H])-[H])-[H]'],"['InChI=1S/C7H9AsO3/c1-6-2-4-7(5-3-6)8(9,10)11/h2-5H,1H3,(H2,9,10,11)']",['GODGOGGXLHQPBK-UHFFFAOYSA-N']
mtolylarsonic_neut->an,3.82,m-tolyl-arsonic acid,10.1021/ja01244a012,['[H]O[As+]([O-])(O[H])[c+]1[c+]([H])[c-](C([H])([H])[H])[c+]([H])[c-]([H])[c-]1[H]'],['[#8](-[H])-[As@+](-[#8]-[H])(-[#8-])-[#6+]1:[#6+](:[#6-](:[#6+](:[#6-](:[#6-]:1-[H])-[H])-[H])-[#6@@](-[H])(-[H])-[H])-[H]'],"['InChI=1S/C7H9AsO3/c1-6-3-2-4-7(5-6)8(9,10)11/h2-5H,1H3,(H2,9,10,11)']",['JEMCDGFTCLWRHL-UHFFFAOYSA-N']
mtolylarsonic_an->2an,8.6,m-tolyl-arsonic acid,10.1021/ja01244a012,['[H]O[As+]([O-])(O[H])[c+]1[c+]([H])[c-](C([H])([H])[H])[c+]([H])[c-]([H])[c-]1[H]'],['[#8](-[H])-[As@+](-[#8]-[H])(-[#8-])-[#6+]1:[#6+](:[#6-](:[#6+](:[#6-](:[#6-]:1-[H])-[H])-[H])-[#6@@](-[H])(-[H])-[H])-[H]'],"['InChI=1S/C7H9AsO3/c1-6-3-2-4-7(5-6)8(9,10)11/h2-5H,1H3,(H2,9,10,11)']",['JEMCDGFTCLWRHL-UHFFFAOYSA-N']
otolylarsonic_neut->an,3.82,o-tolyl-arsonic acid,10.1021/ja01244a012,['[H]O[As+]([O-])(O[H])[c+]1[c+]([H])[c+]([H])[c-]([H])[c-]([H])[c-]1C([H])([H])[H]'],['[#8](-[H])-[As@+](-[#8]-[H])(-[#8-])-[#6+]1:[#6-](:[#6-](:[#6-](:[#6+](:[#6+]:1-[H])-[H])-[H])-[H])-[#6@@](-[H])(-[H])-[H]'],"['InChI=1S/C7H9AsO3/c1-6-4-2-3-5-7(6)8(9,10)11/h2-5H,1H3,(H2,9,10,11)']",['DPJPCCXYYXKLSV-UHFFFAOYSA-N']
otolylarsonic_an->2an,8.85,o-tolyl-arsonic acid,10.1021/ja01244a012,['[H]O[As+]([O-])(O[H])[c+]1[c+]([H])[c+]([H])[c-]([H])[c-]([H])[c-]1C([H])([H])[H]'],['[#8](-[H])-[As@+](-[#8]-[H])(-[#8-])-[#6+]1:[#6-](:[#6-](:[#6-](:[#6+](:[#6+]:1-[H])-[H])-[H])-[H])-[#6@@](-[H])(-[H])-[H]'],"['InChI=1S/C7H9AsO3/c1-6-4-2-3-5-7(6)8(9,10)11/h2-5H,1H3,(H2,9,10,11)']",['DPJPCCXYYXKLSV-UHFFFAOYSA-N']
methylarsonic_neut->an,4.12,methylarsonic,10.1021/jf60206a010,['[H]O[As+]([O-])(O[H])C([H])([H])[H]'],['[#8](-[H])-[As@@+](-[#8]-[H])(-[#8-])-[#6@@](-[H])(-[H])-[H]'],"['InChI=1S/CH5AsO3/c1-2(3,4)5/h1H3,(H2,3,4,5)']",['QYPPRTNMGCREIM-UHFFFAOYSA-N']
methylarsonic_an->2an,9.14,methylarsonic,10.1021/jf60206a010,['[H]O[As+]([O-])(O[H])C([H])([H])[H]'],['[#8](-[H])-[As@@+](-[#8]-[H])(-[#8-])-[#6@@](-[H])(-[H])-[H]'],"['InChI=1S/CH5AsO3/c1-2(3,4)5/h1H3,(H2,3,4,5)']",['QYPPRTNMGCREIM-UHFFFAOYSA-N']
1naphtylarsonic_neut->an,3.66,1-naphtyl-arsonic,10.1021/ja01244a012,['[H]O[As+2]([O-])(O[H])=c1c([H])c([H])c([H])c2[c-]([H])c([H])c([H])c([H])c1-2'],['[#6]1(:[#6-](:[#6]2-[#6](:[#6](:[#6]:1-[H])-[H]):[#6](:[#6](:[#6](:[#6]:2-[H])-[H])-[H])=[As@+2](-[#8-])(-[#8]-[H])-[#8]-[H])-[H])-[H]'],"['InChI=1S/C10H9AsO3/c12-11(13,14)10-7-3-5-8-4-1-2-6-9(8)10/h1-7H,(H2-,12,13,14)']",['KNPHMKUHFWVRIQ-UHFFFAOYSA-N']
1naphtylarsonic_an->2an,8.66,1-naphtyl-arsonic,10.1021/ja01244a012,['[H]O[As+2]([O-])(O[H])=c1c([H])c([H])c([H])c2[c-]([H])c([H])c([H])c([H])c1-2'],['[#6]1(:[#6-](:[#6]2-[#6](:[#6](:[#6]:1-[H])-[H]):[#6](:[#6](:[#6](:[#6]:2-[H])-[H])-[H])=[As@+2](-[#8-])(-[#8]-[H])-[#8]-[H])-[H])-[H]'],"['InChI=1S/C10H9AsO3/c12-11(13,14)10-7-3-5-8-4-1-2-6-9(8)10/h1-7H,(H2-,12,13,14)']",['KNPHMKUHFWVRIQ-UHFFFAOYSA-N']
2nitrophenylarsonic_neut->an,3.37,(2-nitrophenyl)-arsonic acid,10.1021/ja01244a012,['[H]O[As+2](=O)(O[H])c1c([H])c([H])c([H])c([H])c1N([O-])[O-]'],['[#8]=[As@+2](-[#8]-[H])(-[#8]-[H])-[#6]1:[#6](:[#6](:[#6](:[#6](:[#6]:1-[H])-[H])-[H])-[H])-[#7](-[#8-])-[#8-]'],"['InChI=1S/C6H6AsNO5/c9-7(10,11)5-3-1-2-4-6(5)8(12)13/h1-4H,(H2,9,10,11)']",['UYEDGVZDGVIURN-UHFFFAOYSA-N']
2nitrophenylarsonic_an->2an,8.54,(2-nitrophenyl)-arsonic acid,10.1021/ja01244a012,['[H]O[As+2](=O)(O[H])c1c([H])c([H])c([H])c([H])c1N([O-])[O-]'],['[#8]=[As@+2](-[#8]-[H])(-[#8]-[H])-[#6]1:[#6](:[#6](:[#6](:[#6](:[#6]:1-[H])-[H])-[H])-[H])-[#7](-[#8-])-[#8-]'],"['InChI=1S/C6H6AsNO5/c9-7(10,11)5-3-1-2-4-6(5)8(12)13/h1-4H,(H2,9,10,11)']",['UYEDGVZDGVIURN-UHFFFAOYSA-N']
3nitrophenylarsonic_neut->an,3.41,(3-nitrophenyl)-arsonic acid,10.1021/ja01244a012,['[H]O[As+2](=O)(O[H])c1c([H])c([H])c([H])c(N([O-])[O-])c1[H]'],['[#8]=[As@+2](-[#8]-[H])(-[#8]-[H])-[#6]1:[#6](:[#6](:[#6](:[#6](:[#6]:1-[H])-[H])-[H])-[#7](-[#8-])-[#8-])-[H]'],"['InChI=1S/C6H6AsNO5/c9-7(10,11)5-2-1-3-6(4-5)8(12)13/h1-4H,(H2,9,10,11)']",['MDFUVLDZVFTYSX-UHFFFAOYSA-N']
3nitrophenylarsonic_an->2an,7.8,(3-nitrophenyl)-arsonic acid,10.1021/ja01244a012,['[H]O[As+2](=O)(O[H])c1c([H])c([H])c([H])c(N([O-])[O-])c1[H]'],['[#8]=[As@+2](-[#8]-[H])(-[#8]-[H])-[#6]1:[#6](:[#6](:[#6](:[#6](:[#6]:1-[H])-[H])-[H])-[#7](-[#8-])-[#8-])-[H]'],"['InChI=1S/C6H6AsNO5/c9-7(10,11)5-2-1-3-6(4-5)8(12)13/h1-4H,(H2,9,10,11)']",['MDFUVLDZVFTYSX-UHFFFAOYSA-N']
4nitrophenylarsonic_neut->an,2.9,(4-nitrophenyl)-arsonic acid,10.1021/ja01244a012,['[H]O[As+2](=O)(O[H])c1c([H])c([H])c(N([O-])[O-])c([H])c1[H]'],['[#8]=[As@+2](-[#8]-[H])(-[#8]-[H])-[#6]1:[#6](:[#6](:[#6](:[#6](:[#6]:1-[H])-[H])-[#7](-[#8-])-[#8-])-[H])-[H]'],"['InChI=1S/C6H6AsNO5/c9-7(10,11)5-1-3-6(4-2-5)8(12)13/h1-4H,(H2,9,10,11)']",['FUUFQLXAIUOWML-UHFFFAOYSA-N']
4nitrophenylarsonic_an->2an,7.8,(4-nitrophenyl)-arsonic acid,10.1021/ja01244a012,['[H]O[As+2](=O)(O[H])c1c([H])c([H])c(N([O-])[O-])c([H])c1[H]'],['[#8]=[As@+2](-[#8]-[H])(-[#8]-[H])-[#6]1:[#6](:[#6](:[#6](:[#6](:[#6]:1-[H])-[H])-[#7](-[#8-])-[#8-])-[H])-[H]'],"['InChI=1S/C6H6AsNO5/c9-7(10,11)5-1-3-6(4-2-5)8(12)13/h1-4H,(H2,9,10,11)']",['FUUFQLXAIUOWML-UHFFFAOYSA-N']
2chloropropylarsonic_neut->an,3.76,(2-chlorophenyl)-arsonic acid,Lange's handbook of chemistry,['[H]O[As+]([O-])(O[H])[C@@]([H])(Cl)C([H])([H])[H]'],['[H]-[#6@@](-[H])(-[H])-[#6@](-[H])(-[#17])-[As@@+](-[#8-])(-[#8]-[H])-[#8]-[H]'],"['InChI=1S/C2H6AsClO3/c1-2(4)3(5,6)7/h2H,1H3,(H2,5,6,7)/t2-/m0/s1']",['AFAFXDLCZGVAKK-REOHCLBHSA-N']
2chloropropylarsonic_an->2an,8.39,(2-chlorophenyl)-arsonic acid,Lange's handbook of chemistry,['[H]O[As+]([O-])(O[H])[C@@]([H])(Cl)C([H])([H])[H]'],['[H]-[#6@@](-[H])(-[H])-[#6@](-[H])(-[#17])-[As@@+](-[#8-])(-[#8]-[H])-[#8]-[H]'],"['InChI=1S/C2H6AsClO3/c1-2(4)3(5,6)7/h2H,1H3,(H2,5,6,7)/t2-/m0/s1']",['AFAFXDLCZGVAKK-REOHCLBHSA-N']
4bromophenylarsonic_neut->an,3.25,(4-bromophenyl)-arsonic acid,10.1021/ja01244a012,['[H]O[As+]([O-])(O[H])[c+]1[c+]([H])[c+]([H])[c-](Br)[c-]([H])[c-]1[H]'],['[#8](-[H])-[As@+](-[#8]-[H])(-[#8-])-[#6+]1:[#6+](:[#6+](:[#6-](:[#6-](:[#6-]:1-[H])-[H])-[#35])-[H])-[H]'],"['InChI=1S/C6H6AsBrO3/c8-6-3-1-5(2-4-6)7(9,10)11/h1-4H,(H2,9,10,11)']",['RLRUFMQAMUHYAA-UHFFFAOYSA-N']
4bromophenylarsonic_an->2an,8.19,(4-bromophenyl)-arsonic acid,10.1021/ja01244a012,['[H]O[As+]([O-])(O[H])[c+]1[c+]([H])[c+]([H])[c-](Br)[c-]([H])[c-]1[H]'],['[#8](-[H])-[As@+](-[#8]-[H])(-[#8-])-[#6+]1:[#6+](:[#6+](:[#6-](:[#6-](:[#6-]:1-[H])-[H])-[#35])-[H])-[H]'],"['InChI=1S/C6H6AsBrO3/c8-6-3-1-5(2-4-6)7(9,10)11/h1-4H,(H2,9,10,11)']",['RLRUFMQAMUHYAA-UHFFFAOYSA-N']
4chlorophenylarsonic_neut->an,3.33,(4-chlorophenyl)-arsonic acid,10.1021/ja01244a012,['[H]O[As+]([O-])(O[H])[c+]1[c+]([H])[c+]([H])[c-](Cl)[c-]([H])[c-]1[H]'],['[#8](-[H])-[As@+](-[#8]-[H])(-[#8-])-[#6+]1:[#6+](:[#6+](:[#6-](:[#6-](:[#6-]:1-[H])-[H])-[#17])-[H])-[H]'],"['InChI=1S/C6H6AsClO3/c8-6-3-1-5(2-4-6)7(9,10)11/h1-4H,(H2,9,10,11)']",['OAKWMQGNBGGJGT-UHFFFAOYSA-N']
4chlorophenylarsonic_an->2an,8.25,(4-chlorophenyl)-arsonic acid,10.1021/ja01244a012,['[H]O[As+]([O-])(O[H])[c+]1[c+]([H])[c+]([H])[c-](Cl)[c-]([H])[c-]1[H]'],['[#8](-[H])-[As@+](-[#8]-[H])(-[#8-])-[#6+]1:[#6+](:[#6+](:[#6-](:[#6-](:[#6-]:1-[H])-[H])-[#17])-[H])-[H]'],"['InChI=1S/C6H6AsClO3/c8-6-3-1-5(2-4-6)7(9,10)11/h1-4H,(H2,9,10,11)']",['OAKWMQGNBGGJGT-UHFFFAOYSA-N']
diazepam_cation->neut,3.3,diazepam,profiles of drug substances excipiends and related (U),['[H]c1c([H])c([H])c(C2=NC([H])([H])C(=O)N(C([H])([H])[H])c3c([H])c([H])c(Cl)c([H])c32)c([H])c1[H]'],['[#17]-[#6]1:[#6](:[#6]2:[#6](-[#7](-[#6](=[#8])-[#6@@](-[#7]=[#6]-2-[#6]2:[#6](:[#6](:[#6](:[#6](:[#6]:2-[H])-[H])-[H])-[H])-[H])(-[H])-[H])-[#6@](-[H])(-[H])-[H]):[#6](:[#6]:1-[H])-[H])-[H]'],"['InChI=1S/C16H13ClN2O/c1-19-14-8-7-12(17)9-13(14)16(18-10-15(19)20)11-5-3-2-4-6-11/h2-9H,10H2,1H3']",['AAOVKJBEBIDNHE-UHFFFAOYSA-N']
lycodine_2cation->cation,3.97,lycodine,CRC handbook,['[H]c1nc2c(c([H])c1[H])[C@]13N([H])C([H])([H])C([H])([H])C([H])([H])[C@]1([H])[C@]([H])(C2([H])[H])C([H])([H])[C@@]([H])(C([H])([H])[H])C3([H])[H]'],['[#7]1(-[#6@@]23-[#6@@](-[#6@@](-[#6@@](-[#6@](-[#6@@]-2(-[H])-[H])(-[#6@@](-[H])(-[H])-[H])-[H])(-[H])-[H])(-[#6@](-[#6]2:[#7]:[#6](:[#6](:[#6](:[#6]:2-3)-[H])-[H])-[H])(-[H])-[H])-[H])(-[#6@](-[#6@@](-[#6@@]-1(-[H])-[H])(-[H])-[H])(-[H])-[H])-[H])-[H]'],"['InChI=1S/C16H22N2/c1-11-8-12-9-15-14(5-2-6-17-15)16(10-11)13(12)4-3-7-18-16/h2,5-6,11-13,18H,3-4,7-10H2,1H3/t11-,12+,13-,16-/m1/s1']",['JJPMUZRSJKMFRK-OQMKEHIESA-N']
lycodine_cation->neut,8.08,lycodine,CRC handbook,['[H]c1nc2c(c([H])c1[H])[C@]13N([H])C([H])([H])C([H])([H])C([H])([H])[C@]1([H])[C@]([H])(C2([H])[H])C([H])([H])[C@@]([H])(C([H])([H])[H])C3([H])[H]'],['[#7]1(-[#6@@]23-[#6@@](-[#6@@](-[#6@@](-[#6@](-[#6@@]-2(-[H])-[H])(-[#6@@](-[H])(-[H])-[H])-[H])(-[H])-[H])(-[#6@](-[#6]2:[#7]:[#6](:[#6](:[#6](:[#6]:2-3)-[H])-[H])-[H])(-[H])-[H])-[H])(-[#6@](-[#6@@](-[#6@@]-1(-[H])-[H])(-[H])-[H])(-[H])-[H])-[H])-[H]'],"['InChI=1S/C16H22N2/c1-11-8-12-9-15-14(5-2-6-17-15)16(10-11)13(12)4-3-7-18-16/h2,5-6,11-13,18H,3-4,7-10H2,1H3/t11-,12+,13-,16-/m1/s1']",['JJPMUZRSJKMFRK-OQMKEHIESA-N']
harmaline_cation->neut,9.55,harmaline,https://molpharm.aspetjournals.org/content/23/3/614,['[H]c1c(OC([H])([H])[H])c([H])c2c(c1[H])c1c(n2[H])C(C([H])([H])[H])=NC([H])([H])C1([H])[H]'],['[#8](-[#6]1:[#6](:[#6]2:[#7](:[#6]3:[#6](-[#6@@](-[#6@@](-[#7]=[#6]-3-[#6@](-[H])(-[H])-[H])(-[H])-[H])(-[H])-[H]):[#6]:2:[#6](:[#6]:1-[H])-[H])-[H])-[H])-[#6@](-[H])(-[H])-[H]'],"['InChI=1S/C13H14N2O/c1-8-13-11(5-6-14-8)10-4-3-9(16-2)7-12(10)15-13/h3-4,7,15H,5-6H2,1-2H3']",['RERZNCLIYCABFS-UHFFFAOYSA-N']
dimethylarsinic_neut->an,6.29,dimethylarsinic acid,10.1021/jf60206a010,['[H]O[As+]([O-])(C([H])([H])[H])C([H])([H])[H]'],['[H]-[#6@](-[#33@](-[#6@@](-[H])(-[H])-[H])(-[#8]-[H])-[#8-])(-[H])-[H]'],"['InChI=1S/C2H7AsO2/c1-3(2,4)5/h1-2H3,(H,4,5)']",['OGGXGZAMXPVRFZ-UHFFFAOYSA-N']
clonazepam_cation->neut,1.5,clonazepam,CRC handbook,['[H]c1c([H])c([H])c(C2=NC([H])([H])C(=O)N([H])c3c([H])c([H])c([N+](=O)[O-])c([H])c32)c(Cl)c1[H]'],['[#17]-[#6]1:[#6](-[#6]2=[#7]-[#6@](-[#6](=[#8])-[#7](-[#6]3:[#6]-2:[#6](:[#6](-[#7+](=[#8])-[#8-]):[#6](:[#6]:3-[H])-[H])-[H])-[H])(-[H])-[H]):[#6](:[#6](:[#6](:[#6]:1-[H])-[H])-[H])-[H]'],"['InChI=1S/C15H10ClN3O3/c16-12-4-2-1-3-10(12)15-11-7-9(19(21)22)5-6-13(11)18-14(20)8-17-15/h1-7H,8H2,(H,18,20)']",['DGBIGWXXNGSACT-UHFFFAOYSA-N']
clonazepam_neut->an,10.5,clonazepam,CRC handbook,['[H]c1c([H])c([H])c(C2=NC([H])([H])C(=O)N([H])c3c([H])c([H])c([N+](=O)[O-])c([H])c32)c(Cl)c1[H]'],['[#17]-[#6]1:[#6](-[#6]2=[#7]-[#6@](-[#6](=[#8])-[#7](-[#6]3:[#6]-2:[#6](:[#6](-[#7+](=[#8])-[#8-]):[#6](:[#6]:3-[H])-[H])-[H])-[H])(-[H])-[H]):[#6](:[#6](:[#6](:[#6]:1-[H])-[H])-[H])-[H]'],"['InChI=1S/C15H10ClN3O3/c16-12-4-2-1-3-10(12)15-11-7-9(19(21)22)5-6-13(11)18-14(20)8-17-15/h1-7H,8H2,(H,18,20)']",['DGBIGWXXNGSACT-UHFFFAOYSA-N']
nphenylimidazolin2imine_cation->neut,10.24,phenyliminoimidazolidine,"DOI: 10.1039/c7nj02497e New J. Chem., 2017, 41, 11016--11028","['[H]c1c([H])c([H])c(N([H])C2=NC([H])([H])C([H])([H])N2[H])c([H])c1[H]', '[H]c1c([H])c([H])c(N=C2N([H])C([H])([H])C([H])([H])N2[H])c([H])c1[H]']","['[#6]1(-[#7](-[#6@@](-[#6@](-[H])(-[H])-[#7]=1)(-[H])-[H])-[H])-[#7](-[#6]1:[#6](:[#6](:[#6](:[#6](:[#6]:1-[H])-[H])-[H])-[H])-[H])-[H]', '[#6]1(=[#7]-[#6@@](-[#6@](-[H])(-[H])-[#7]-1-[H])(-[H])-[H])-[#7](-[#6]1:[#6](:[#6](:[#6](:[#6](:[#6]:1-[H])-[H])-[H])-[H])-[H])-[H]', '[#6]1(-[#7](-[#6@@](-[#6@](-[H])(-[H])-[#7]-1-[H])(-[H])-[H])-[H])=[#7]-[#6]1:[#6](:[#6](:[#6](:[#6](:[#6]:1-[H])-[H])-[H])-[H])-[H]']","['InChI=1S/C9H11N3/c1-2-4-8(5-3-1)12-9-10-6-7-11-9/h1-5H,6-7H2,(H2,10,11,12)']",['JCOPITWIWLFFPC-UHFFFAOYSA-N']
n4nitrophenylimidazolin2imine_cation->neut,8.52,"n-(4-nitrophenyl)-4,5-dihydro-1h-imidazol-2-amine","DOI: 10.1039/c7nj02497e New J. Chem., 2017, 41, 11016--11028","['[H]c1c([H])c([N+](=O)[O-])c([H])c([H])c1N([H])C1=NC([H])([H])C([H])([H])N1[H]', '[H]c1c([H])c([N+](=O)[O-])c([H])c([H])c1N=C1N([H])C([H])([H])C([H])([H])N1[H]']","['[#6]1(=[#7]-[#6@@](-[#6@](-[H])(-[H])-[#7]-1-[H])(-[H])-[H])-[#7](-[#6]1:[#6](:[#6](:[#6](:[#6](:[#6]:1-[H])-[H])-[#7+](=[#8])-[#8-])-[H])-[H])-[H]', '[#6]1(-[#7](-[#6@@](-[#6@](-[H])(-[H])-[#7]=1)(-[H])-[H])-[H])-[#7](-[#6]1:[#6](:[#6](:[#6](:[#6](:[#6]:1-[H])-[H])-[#7+](=[#8])-[#8-])-[H])-[H])-[H]', '[#6]1(-[#7](-[#6@@](-[#6@](-[H])(-[H])-[#7]-1-[H])(-[H])-[H])-[H])=[#7]-[#6]1:[#6](:[#6](:[#6](:[#6](:[#6]:1-[H])-[H])-[#7+](=[#8])-[#8-])-[H])-[H]']","['InChI=1S/C9H10N4O2/c14-13(15)8-3-1-7(2-4-8)12-9-10-5-6-11-9/h1-4H,5-6H2,(H2,10,11,12)']",['PLZAMCXEDPBIOT-UHFFFAOYSA-N']
n4methoxyphenylimidazolin2imine_cation->neut,10.62,n-(4-methoxyphenyl)imidazolidin-2-imine,"DOI: 10.1039/c7nj02497e New J. Chem., 2017, 41, 11016--11028",['[H]c1c([H])c(OC([H])([H])[H])c([H])c([H])c1N=C1N([H])C([H])([H])C([H])([H])N1[H]'],['[#6]1(-[#7](-[#6@@](-[#6@](-[H])(-[H])-[#7]-1-[H])(-[H])-[H])-[H])=[#7]-[#6]1:[#6](:[#6](:[#6](:[#6](:[#6]:1-[H])-[H])-[#8]-[#6@@](-[H])(-[H])-[H])-[H])-[H]'],"['InChI=1S/C10H13N3O/c1-14-9-4-2-8(3-5-9)13-10-11-6-7-12-10/h2-5H,6-7H2,1H3,(H2,11,12,13)']",['ZCGHVGWHOPGTES-UHFFFAOYSA-N']
n4acetylphenylimidazolin2imine_cation->neut,9.11,"1-[4-(4,5-dihydro-1H-imidazol-2-ylamino)phenyl]ethanone ","DOI: 10.1039/c7nj02497e New J. Chem., 2017, 41, 11016--11028",['[H]c1c([H])c(C(=O)C([H])([H])[H])c([H])c([H])c1N=C1N([H])C([H])([H])C([H])([H])N1[H]'],['[#6]1(-[#7](-[#6@@](-[#6@](-[H])(-[H])-[#7]-1-[H])(-[H])-[H])-[H])=[#7]-[#6]1:[#6](:[#6](:[#6](:[#6](:[#6]:1-[H])-[H])-[#6](=[#8])-[#6@@](-[H])(-[H])-[H])-[H])-[H]'],"['InChI=1S/C11H13N3O/c1-8(15)9-2-4-10(5-3-9)14-11-12-6-7-13-11/h2-5H,6-7H2,1H3,(H2,12,13,14)']",['ZTSMQCUYKQEXIJ-UHFFFAOYSA-N']
n2chloro4nitrophenylimidazolin2imine_cation->neut,7.29,"n-(2-chloro-4-nitrophenyl)-4,5-dihydro-1h-imidazol-2-amine","DOI: 10.1039/c7nj02497e New J. Chem., 2017, 41, 11016--11028",['[H]c1c([H])c([N+](=O)[O-])c([H])c(Cl)c1N=C1N([H])C([H])([H])C([H])([H])N1[H]'],['[#6]1(-[#7](-[#6@@](-[#6@](-[H])(-[H])-[#7]-1-[H])(-[H])-[H])-[H])=[#7]-[#6]1:[#6](:[#6](:[#6](:[#6](:[#6]:1-[#17])-[H])-[#7+](=[#8])-[#8-])-[H])-[H]'],"['InChI=1S/C9H9ClN4O2/c10-7-5-6(14(15)16)1-2-8(7)13-9-11-3-4-12-9/h1-2,5H,3-4H2,(H2,11,12,13)']",['QGGYHLKRYVKSJI-UHFFFAOYSA-N']
n2fluoro4nitrophenylimidazolin2imine_cation->neut,7.41,"n-(2-fluoro-4-nitrophenyl)-4,5-dihydro-1h-imidazol-2-amine","DOI: 10.1039/c7nj02497e New J. Chem., 2017, 41, 11016--11028",['[H]c1c([H])c([N+](=O)[O-])c([H])c(F)c1N=C1N([H])C([H])([H])C([H])([H])N1[H]'],['[#6]1(-[#7](-[#6@@](-[#6@](-[H])(-[H])-[#7]-1-[H])(-[H])-[H])-[H])=[#7]-[#6]1:[#6](:[#6](:[#6](:[#6](:[#6]:1-[#9])-[H])-[#7+](=[#8])-[#8-])-[H])-[H]'],"['InChI=1S/C9H9FN4O2/c10-7-5-6(14(15)16)1-2-8(7)13-9-11-3-4-12-9/h1-2,5H,3-4H2,(H2,11,12,13)']",['OQPUVSYQCPJSRY-UHFFFAOYSA-N']
n3chloro4nitrophenylimidazolin2imine_cation->neut,8.07,"n-(3-chloro-4-nitrophenyl)-4,5-dihydro-1h-imidazol-2-amine","DOI: 10.1039/c7nj02497e New J. Chem., 2017, 41, 11016--11028",['[H]c1c([H])c([N+](=O)[O-])c(Cl)c([H])c1N=C1N([H])C([H])([H])C([H])([H])N1[H]'],['[#6]1(-[#7](-[#6@@](-[#6@](-[H])(-[H])-[#7]-1-[H])(-[H])-[H])-[H])=[#7]-[#6]1:[#6](:[#6](:[#6](:[#6](:[#6]:1-[H])-[#17])-[#7+](=[#8])-[#8-])-[H])-[H]'],"['InChI=1S/C9H9ClN4O2/c10-7-5-6(1-2-8(7)14(15)16)13-9-11-3-4-12-9/h1-2,5H,3-4H2,(H2,11,12,13)']",['ZTAUQKHICZPPRL-UHFFFAOYSA-N']