compn,pKa,correct name,reference,smiles,smarts,inchi,inchiKey
tetrahydrozoline_cation->neut,10.51,tetrahydrozoline,profiles of drug substances excipiends and related (U),['[H]c1c([H])c([H])c2c(c1[H])C([H])([H])C([H])([H])C([H])([H])[C@@]2([H])C1=NC([H])([H])C([H])([H])N1[H]'],['[#7]1(-[#6](=[#7]-[#6@](-[#6@@]-1(-[H])-[H])(-[H])-[H])-[#6@@]1(-[#6@](-[#6@](-[#6@](-[#6]2:[#6]-1:[#6](:[#6](:[#6](:[#6]:2-[H])-[H])-[H])-[H])(-[H])-[H])(-[H])-[H])(-[H])-[H])-[H])-[H]'],"['InChI=1S/C13H16N2/c1-2-6-11-10(4-1)5-3-7-12(11)13-14-8-9-15-13/h1-2,4,6,12H,3,5,7-9H2,(H,14,15)/t12-/m1/s1']",['BYJAVTDNIXVSPW-GFCCVEGCSA-N']
tolazoline_cation->neut,10.3,tolazoline,profiles of drug substances excipiends and related (U),['[H]c1c([H])c([H])c(C([H])([H])C2=NC([H])([H])C([H])([H])N2[H])c([H])c1[H]'],['[#7]1(-[#6](=[#7]-[#6@](-[#6@@]-1(-[H])-[H])(-[H])-[H])-[#6@](-[#6]1:[#6](:[#6](:[#6](:[#6](:[#6]:1-[H])-[H])-[H])-[H])-[H])(-[H])-[H])-[H]'],"['InChI=1S/C10H12N2/c1-2-4-9(5-3-1)8-10-11-6-7-12-10/h1-5H,6-8H2,(H,11,12)']",['JIVZKJJQOZQXQB-UHFFFAOYSA-N']
35dibenzamido124triazole_neut->an,10.21,"3,5-dibenzamido-1,2,4-triazole",profiles of drug substances excipiends and related (U),['[H]c1c([H])c([H])c(C(=O)N([H])c2nc(N([H])C(=O)c3c([H])c([H])c([H])c([H])c3[H])n([H])n2)c([H])c1[H]'],['[#7]1(:[#7]:[#6](:[#7]:[#6]:1-[#7](-[#6](=[#8])-[#6]1:[#6](:[#6](:[#6](:[#6](:[#6]:1-[H])-[H])-[H])-[H])-[H])-[H])-[#7](-[#6](=[#8])-[#6]1:[#6](:[#6](:[#6](:[#6](:[#6]:1-[H])-[H])-[H])-[H])-[H])-[H])-[H]'],"['InChI=1S/C16H13N5O2/c22-13(11-7-3-1-4-8-11)17-15-19-16(21-20-15)18-14(23)12-9-5-2-6-10-12/h1-10H,(H3,17,18,19,20,21,22,23)']",['RGBUMMFUOYYLKN-UHFFFAOYSA-N']
35diparanitrobenzamido124triazole_neut->an,8.64,"3,5-di(p-nitro-benzamido)-1,2,4-triazole",profiles of drug substances excipiends and related (U),['[H]c1c([H])c([N+](=O)[O-])c([H])c([H])c1C(=O)N([H])c1nc(N([H])C(=O)c2c([H])c([H])c([N+](=O)[O-])c([H])c2[H])n([H])n1'],['[#7]1(:[#7]:[#6](:[#7]:[#6]:1-[#7](-[#6](=[#8])-[#6]1:[#6](:[#6](:[#6](:[#6](:[#6]:1-[H])-[H])-[#7+](=[#8])-[#8-])-[H])-[H])-[H])-[#7](-[#6](=[#8])-[#6]1:[#6](:[#6](:[#6](:[#6](:[#6]:1-[H])-[H])-[#7+](=[#8])-[#8-])-[H])-[H])-[H])-[H]'],"['InChI=1S/C16H11N7O6/c24-13(9-1-5-11(6-2-9)22(26)27)17-15-19-16(21-20-15)18-14(25)10-3-7-12(8-4-10)23(28)29/h1-8H,(H3,17,18,19,20,21,24,25)']",['ZECVYBACNYFDAJ-UHFFFAOYSA-N']
sulfathiazole_neut->an,7.49,sulfathiazole,profiles of drug substances excipiends and related (U),"['[H]c1nc(N=[S@@](=O)([O-])c2c([H])c([H])c([N+]([H])([H])[H])c([H])c2[H])sc1[H]', '[H]c1[s+]c(N=[S@@](=O)([O-])c2c([H])c([H])c(N([H])[H])c([H])c2[H])n([H])c1[H]', '[H]c1nc(N([H])S(=O)(=O)c2c([H])c([H])c(N([H])[H])c([H])c2[H])sc1[H]']","['[#16]1:[#6](-[#7]=[#16@@](=[#8])(-[#8-])-[#6]2:[#6](:[#6](:[#6](-[#7@@+](-[H])(-[H])-[H]):[#6](:[#6]:2-[H])-[H])-[H])-[H]):[#7]:[#6](:[#6]:1-[H])-[H]', '[#16+]1:[#6](-[#7]=[#16@@](=[#8])(-[#8-])-[#6]2:[#6](:[#6](:[#6](-[#7](-[H])-[H]):[#6](:[#6]:2-[H])-[H])-[H])-[H]):[#7](:[#6](:[#6]:1-[H])-[H])-[H]', '[#16]1:[#6](-[#7](-[#16@@](=[#8])(=[#8])-[#6]2:[#6](:[#6](:[#6](-[#7](-[H])-[H]):[#6](:[#6]:2-[H])-[H])-[H])-[H])-[H]):[#7]:[#6](:[#6]:1-[H])-[H]']","['InChI=1S/C9H9N3O2S2/c10-7-1-3-8(4-2-7)16(13,14)12-9-11-5-6-15-9/h1-6H,10H2,(H,11,12,13,14)', 'InChI=1S/C9H9N3O2S2/c10-7-1-3-8(4-2-7)16(13,14)12-9-11-5-6-15-9/h1-6,11H,10H2', 'InChI=1S/C9H9N3O2S2/c10-7-1-3-8(4-2-7)16(13,14)12-9-11-5-6-15-9/h1-6H,10H2,(H,11,12)']","['BCADKGSPMQVRQL-UHFFFAOYSA-N', 'AAUKWXNOMOEXDQ-UHFFFAOYSA-N', 'JNMRHUJNCSQMMB-UHFFFAOYSA-N']"
vanilic_neut->an,4.53,vanillic acid,profiles of drug substances excipiends and related (U),['[H]OC(=O)c1c([H])c([H])c(O[H])c(OC([H])([H])[H])c1[H]'],['[#8](-[#6]1:[#6](:[#6](:[#6](:[#6](:[#6]:1-[#8]-[H])-[H])-[H])-[#6](-[#8]-[H])=[#8])-[H])-[#6@](-[H])(-[H])-[H]'],"['InChI=1S/C8H8O4/c1-12-7-4-5(8(10)11)2-3-6(7)9/h2-4,9H,1H3,(H,10,11)']",['WKOLLVMJNQIZCI-UHFFFAOYSA-N']
ovanillin_neut->an,7.91,ortho-vanillin,profiles of drug substances excipiends and related (A),['[H]Oc1c(OC([H])([H])[H])c([H])c([H])c([H])c1C([H])=O'],['[#8](-[#6]1:[#6](-[#8]-[H]):[#6](:[#6](:[#6](:[#6]:1-[H])-[H])-[H])-[#6](=[#8])-[H])-[#6@](-[H])(-[H])-[H]'],"['InChI=1S/C8H8O3/c1-11-7-4-2-3-6(5-9)8(7)10/h2-5,10H,1H3']",['JJVNINGBHGBWJH-UHFFFAOYSA-N']
histaminemonoiodo_2cation->cation,4.11,histamine monoiodo,profiles of drug substances excipiends and related (A),"['[H]c1nc(I)c(C([H])([H])C([H])([H])N([H])[H])n1[H]', '[H]c1nc(C([H])([H])C([H])([H])N([H])[H])c(I)n1[H]']","['[#7]1(:[#6](-[#6@@](-[#6@](-[#7](-[H])-[H])(-[H])-[H])(-[H])-[H]):[#6](:[#7]:[#6]:1-[H])-[#53])-[H]', '[#7]1:[#6](-[#6@@](-[#6@](-[#7](-[H])-[H])(-[H])-[H])(-[H])-[H]):[#6](:[#7](:[#6]:1-[H])-[H])-[#53]']","['InChI=1S/C5H8IN3/c6-5-4(1-2-7)8-3-9-5/h3H,1-2,7H2,(H,8,9)']",['VFGXPKFIDXTKNM-UHFFFAOYSA-N']
histaminemonoiodo_neut->an,11.88,histamine monoiodo,profiles of drug substances excipiends and related (A),"['[H]c1nc(I)c(C([H])([H])C([H])([H])N([H])[H])n1[H]', '[H]c1nc(C([H])([H])C([H])([H])N([H])[H])c(I)n1[H]']","['[#7]1(:[#6](-[#6@@](-[#6@](-[#7](-[H])-[H])(-[H])-[H])(-[H])-[H]):[#6](:[#7]:[#6]:1-[H])-[#53])-[H]', '[#7]1:[#6](-[#6@@](-[#6@](-[#7](-[H])-[H])(-[H])-[H])(-[H])-[H]):[#6](:[#7](:[#6]:1-[H])-[H])-[#53]']","['InChI=1S/C5H8IN3/c6-5-4(1-2-7)8-3-9-5/h3H,1-2,7H2,(H,8,9)']",['VFGXPKFIDXTKNM-UHFFFAOYSA-N']
histaminediiodo_2cation->cation,2.31,histamine diiodo,profiles of drug substances excipiends and related (A),"['[H]N([H])C([H])([H])C([H])([H])c1nc(I)n([H])c1I', '[H]N([H])C([H])([H])C([H])([H])c1c(I)nc(I)n1[H]']","['[#7]1:[#6](-[#6@@](-[#6@](-[#7](-[H])-[H])(-[H])-[H])(-[H])-[H]):[#6](:[#7](:[#6]:1-[#53])-[H])-[#53]', '[#7]1(:[#6](-[#6@@](-[#6@](-[#7](-[H])-[H])(-[H])-[H])(-[H])-[H]):[#6](:[#7]:[#6]:1-[#53])-[#53])-[H]']","['InChI=1S/C5H7I2N3/c6-4-3(1-2-8)9-5(7)10-4/h1-2,8H2,(H,9,10)']",['CNXCMMFQJUDXOB-UHFFFAOYSA-N']
histaminediiodo_neut->an,10.11,histamine diiodo,profiles of drug substances excipiends and related (A),"['[H]N([H])C([H])([H])C([H])([H])c1nc(I)n([H])c1I', '[H]N([H])C([H])([H])C([H])([H])c1c(I)nc(I)n1[H]']","['[#7]1:[#6](-[#6@@](-[#6@](-[#7](-[H])-[H])(-[H])-[H])(-[H])-[H]):[#6](:[#7](:[#6]:1-[#53])-[H])-[#53]', '[#7]1(:[#6](-[#6@@](-[#6@](-[#7](-[H])-[H])(-[H])-[H])(-[H])-[H]):[#6](:[#7]:[#6]:1-[#53])-[#53])-[H]']","['InChI=1S/C5H7I2N3/c6-4-3(1-2-8)9-5(7)10-4/h1-2,8H2,(H,9,10)']",['CNXCMMFQJUDXOB-UHFFFAOYSA-N']
6methyl24diaminopteridine_cation->neut,5.33,"6-methyl-2,4-diamino-pteridine",10.1002/cber.19801130431,['[H]c1nc2nc(N([H])[H])nc(N([H])[H])c2nc1C([H])([H])[H]'],['[#7]1:[#6]2:[#7]:[#6](:[#6](:[#7]:[#6]:2:[#6](:[#7]:[#6]:1-[#7](-[H])-[H])-[#7](-[H])-[H])-[#6@@](-[H])(-[H])-[H])-[H]'],"['InChI=1S/C7H8N6/c1-3-2-10-6-4(11-3)5(8)12-7(9)13-6/h2H,1H3,(H4,8,9,10,12,13)']",['MFNAKLLYSPINFZ-UHFFFAOYSA-N']
6methyl2amino4hydroxypteridine_cation->neut,2.5,6-methyl-2-amino-4-hydroxypteridine,profiles of drug substances excipiends and related (U),"['[H]Oc1nc(N([H])[H])nc2nc([H])c(C([H])([H])[H])nc12', '[H]c1nc2nc(N([H])[H])n([H])c(=O)c2nc1C([H])([H])[H]']","['[#7]1:[#6]2:[#7]:[#6](:[#6](:[#7]:[#6]:2:[#6](:[#7]:[#6]:1-[#7](-[H])-[H])-[#8]-[H])-[#6@@](-[H])(-[H])-[H])-[H]', '[#8]=[#6]1:[#7](:[#6](:[#7]:[#6]2:[#7]:[#6](:[#6](:[#7]:[#6]:2:1)-[#6@@](-[H])(-[H])-[H])-[H])-[#7](-[H])-[H])-[H]']","['InChI=1S/C7H7N5O/c1-3-2-9-5-4(10-3)6(13)12-7(8)11-5/h2H,1H3,(H3,8,9,11,12,13)']",['UDOGNMDURIJYQC-UHFFFAOYSA-N']
6hydroxy24diaminopteridine_cation->neut,4.3,"6-hydroxy-2,4-diamino-pteridine",profiles of drug substances excipiends and related (U),['[H]Oc1nc2c(N([H])[H])nc(N([H])[H])nc2nc1[H]'],['[#7]1:[#6]2:[#7]:[#6](:[#6](:[#7]:[#6]:2:[#6](:[#7]:[#6]:1-[#7](-[H])-[H])-[#7](-[H])-[H])-[#8]-[H])-[H]'],"['InChI=1S/C6H6N6O/c7-4-3-5(12-6(8)11-4)9-1-2(13)10-3/h1H,(H,10,13)(H4,7,8,9,11,12)']",['ZRCOJWIMQCCRJH-UHFFFAOYSA-N']
sulfacetamide_cation->neut,1.76,sulfacetamide,profiles of drug substances excipiends and related (U),['[H]c1c([H])c(S(=O)(=O)N([H])C(=O)C([H])([H])[H])c([H])c([H])c1N([H])[H]'],['[#8]=[#16@](=[#8])(-[#7](-[#6](=[#8])-[#6@@](-[H])(-[H])-[H])-[H])-[#6]1:[#6](:[#6](:[#6](-[#7](-[H])-[H]):[#6](:[#6]:1-[H])-[H])-[H])-[H]'],"['InChI=1S/C8H10N2O3S/c1-6(11)10-14(12,13)8-4-2-7(9)3-5-8/h2-5H,9H2,1H3,(H,10,11)']",['SKIVFJLNDNKQPD-UHFFFAOYSA-N']
sulfacetamide_neut->an,5.22,sulfacetamide,profiles of drug substances excipiends and related (U),['[H]c1c([H])c(S(=O)(=O)N([H])C(=O)C([H])([H])[H])c([H])c([H])c1N([H])[H]'],['[#8]=[#16@](=[#8])(-[#7](-[#6](=[#8])-[#6@@](-[H])(-[H])-[H])-[H])-[#6]1:[#6](:[#6](:[#6](-[#7](-[H])-[H]):[#6](:[#6]:1-[H])-[H])-[H])-[H]'],"['InChI=1S/C8H10N2O3S/c1-6(11)10-14(12,13)8-4-2-7(9)3-5-8/h2-5H,9H2,1H3,(H,10,11)']",['SKIVFJLNDNKQPD-UHFFFAOYSA-N']
bentazone_neut->an,3.51,bentazone,www.fao.org/fileadmin/templates/agphome/documents/Pests_Pesticides/JMPR/Evaluation13/Bentazone.pdf,['[H]c1c([H])c([H])c2c(c1[H])C(=O)N(C([H])(C([H])([H])[H])C([H])([H])[H])S(=O)(=O)N2[H]'],['[#8]=[#16@]1(=[#8])-[#7](-[#6@](-[#6@@](-[H])(-[H])-[H])(-[#6@](-[H])(-[H])-[H])-[H])-[#6](=[#8])-[#6]2:[#6](-[#7]-1-[H]):[#6](:[#6](:[#6](:[#6]:2-[H])-[H])-[H])-[H]'],"['InChI=1S/C10H12N2O3S/c1-7(2)12-10(13)8-5-3-4-6-9(8)11-16(12,14)15/h3-7,11H,1-2H3']",['ZOMSMJKLGFBRBS-UHFFFAOYSA-N']
debrisoquine_cation->neut,11.9,debrisoquine,doi.org/10.1177/106002807801200906,"['[H]/N=C(/N([H])[H])N1C([H])([H])c2c([H])c([H])c([H])c([H])c2C([H])([H])C1([H])[H]', '[H]/N=C(\\N([H])[H])N1C([H])([H])c2c([H])c([H])c([H])c([H])c2C([H])([H])C1([H])[H]']","['[#7]1(-[#6@](-[#6@](-[#6]2:[#6](-[#6@@]-1(-[H])-[H]):[#6](:[#6](:[#6](:[#6]:2-[H])-[H])-[H])-[H])(-[H])-[H])(-[H])-[H])/[#6](-[#7](-[H])-[H])=[#7]\\[H]', '[#7]1(-[#6@](-[#6@](-[#6]2:[#6](-[#6@@]-1(-[H])-[H]):[#6](:[#6](:[#6](:[#6]:2-[H])-[H])-[H])-[H])(-[H])-[H])(-[H])-[H])/[#6](-[#7](-[H])-[H])=[#7]/[H]']","['InChI=1S/C10H13N3/c11-10(12)13-6-5-8-3-1-2-4-9(8)7-13/h1-4H,5-7H2,(H3,11,12)']",['JWPGJSVJDAJRLW-UHFFFAOYSA-N']
ioxynil_neut->an,4.08,ioxynil ,adsorption and drug development,['[H]Oc1c(I)c([H])c(C#N)c([H])c1I'],['[#53]-[#6]1:[#6](-[#8]-[H]):[#6](-[#53]):[#6](:[#6](:[#6]:1-[H])-[#6]#[#7])-[H]'],"['InChI=1S/C7H3I2NO/c8-5-1-4(3-10)2-6(9)7(5)11/h1-2,11H']",['NRXQIUSYPAHGNM-UHFFFAOYSA-N']
pentachlorophenol_neut->an,4.69,pentachlorophenol,adsorption and drug development,['[H]Oc1c(Cl)c(Cl)c(Cl)c(Cl)c1Cl'],['[#17]-[#6]1:[#6](-[#8]-[H]):[#6](-[#17]):[#6](-[#17]):[#6](-[#17]):[#6]:1-[#17]'],['InChI=1S/C6HCl5O/c7-1-2(8)4(10)6(12)5(11)3(1)9/h12H'],['IZUPBVBPLAPZRR-UHFFFAOYSA-N']
pirimicarb_cation->neut,4.54,pirimicarb,adsorption and drug development,['[H]C([H])([H])c1nc(N(C([H])([H])[H])C([H])([H])[H])nc(OC(=O)N(C([H])([H])[H])C([H])([H])[H])c1C([H])([H])[H]'],['[#8](-[#6]1:[#7]:[#6](-[#7](-[#6@](-[H])(-[H])-[H])-[#6@](-[H])(-[H])-[H]):[#7]:[#6](:[#6]:1-[#6@@](-[H])(-[H])-[H])-[#6@@](-[H])(-[H])-[H])-[#6](=[#8])-[#7](-[#6@](-[H])(-[H])-[H])-[#6@](-[H])(-[H])-[H]'],['InChI=1S/C11H18N4O2/c1-7-8(2)12-10(14(3)4)13-9(7)17-11(16)15(5)6/h1-6H3'],['YFGYUFNIOHWBOB-UHFFFAOYSA-N']
56difluorobenzimidazole_cation->neut,4.5,"5,6-difluorobenzimidazole",https://doi.org/10.1002/cmdc.200700059,['[H]c1c(F)c(F)c([H])c2c1nc([H])n2[H]'],['[#9]-[#6]1:[#6](:[#6]2:[#7](:[#6](:[#7]:[#6]:2:[#6](:[#6]:1-[#9])-[H])-[H])-[H])-[H]'],"['InChI=1S/C7H4F2N2/c8-4-1-6-7(2-5(4)9)11-3-10-6/h1-3H,(H,10,11)']",['IAYQNPPZFVAZLY-UHFFFAOYSA-N']
56difluorobenzimidazole_neut->an,11.7,"5,6-difluorobenzimidazole",https://doi.org/10.1002/cmdc.200700059,['[H]c1c(F)c(F)c([H])c2c1nc([H])n2[H]'],['[#9]-[#6]1:[#6](:[#6]2:[#7](:[#6](:[#7]:[#6]:2:[#6](:[#6]:1-[#9])-[H])-[H])-[H])-[H]'],"['InChI=1S/C7H4F2N2/c8-4-1-6-7(2-5(4)9)11-3-10-6/h1-3H,(H,10,11)']",['IAYQNPPZFVAZLY-UHFFFAOYSA-N']
4567tetrafluorobenzimidazole_cation->neut,2.1,"4,5,6,7-tetrafluorobenzimidazole",https://doi.org/10.1002/cmdc.200700059,['[H]c1nc2c(F)c(F)c(F)c(F)c2n1[H]'],['[#9]-[#6]1:[#6](:[#6]2:[#7]:[#6](:[#7](:[#6]:2:[#6](:[#6]:1-[#9])-[#9])-[H])-[H])-[#9]'],"['InChI=1S/C7H2F4N2/c8-2-3(9)5(11)7-6(4(2)10)12-1-13-7/h1H,(H,12,13)']",['BYGZIKVYZQCNDO-UHFFFAOYSA-N']
4567tetrafluorobenzimidazole_neut->an,9.4,"4,5,6,7-tetrafluorobenzimidazole",https://doi.org/10.1002/cmdc.200700059,['[H]c1nc2c(F)c(F)c(F)c(F)c2n1[H]'],['[#9]-[#6]1:[#6](:[#6]2:[#7]:[#6](:[#7](:[#6]:2:[#6](:[#6]:1-[#9])-[#9])-[H])-[H])-[#9]'],"['InChI=1S/C7H2F4N2/c8-2-3(9)5(11)7-6(4(2)10)12-1-13-7/h1H,(H,12,13)']",['BYGZIKVYZQCNDO-UHFFFAOYSA-N']
pyridoxine_cation->neut,5,pyridoxine,profiles of drug substances excipiends and related (U),['[H]Oc1c(C([H])([H])[H])nc([H])c(C([H])([H])O[H])c1C([H])([H])O[H]'],['[#8](-[#6]1:[#6](:[#6](-[#6@@](-[#8]-[H])(-[H])-[H]):[#6](:[#7]:[#6]:1-[#6@@](-[H])(-[H])-[H])-[H])-[#6@@](-[#8]-[H])(-[H])-[H])-[H]'],"['InChI=1S/C8H11NO3/c1-5-8(12)7(4-11)6(3-10)2-9-5/h2,10-12H,3-4H2,1H3']",['LXNHXLLTXMVWPM-UHFFFAOYSA-N']
pyridoxine_neut->an,8.96,pyridoxine,profiles of drug substances excipiends and related (A),['[H]Oc1c(C([H])([H])[H])nc([H])c(C([H])([H])O[H])c1C([H])([H])O[H]'],['[#8](-[#6]1:[#6](:[#6](-[#6@@](-[#8]-[H])(-[H])-[H]):[#6](:[#7]:[#6]:1-[#6@@](-[H])(-[H])-[H])-[H])-[#6@@](-[#8]-[H])(-[H])-[H])-[H]'],"['InChI=1S/C8H11NO3/c1-5-8(12)7(4-11)6(3-10)2-9-5/h2,10-12H,3-4H2,1H3']",['LXNHXLLTXMVWPM-UHFFFAOYSA-N']
sulfapyridine_neut->an,8.2,sulfapyridine,profiles of drug substances excipiends and related (U),['[H]c1nc(N([H])S(=O)(=O)c2c([H])c([H])c(N([H])[H])c([H])c2[H])c([H])c([H])c1[H]'],['[#8]=[#16@@](=[#8])(-[#7](-[#6]1:[#7]:[#6](:[#6](:[#6](:[#6]:1-[H])-[H])-[H])-[H])-[H])-[#6]1:[#6](:[#6](:[#6](-[#7](-[H])-[H]):[#6](:[#6]:1-[H])-[H])-[H])-[H]'],"['InChI=1S/C11H11N3O2S/c12-9-4-6-10(7-5-9)17(15,16)14-11-3-1-2-8-13-11/h1-8H,12H2,(H,13,14)']",['GECHUMIMRBOMGK-UHFFFAOYSA-N']
mirtazapine_cation->neut,7.1,mirtazapine,profiles of drug substances excipiends and related (U),['[H]c1nc2c(c([H])c1[H])C([H])([H])c1c([H])c([H])c([H])c([H])c1[C@@]1([H])N2C([H])([H])C([H])([H])N(C([H])([H])[H])C1([H])[H]'],['[#7]12-[#6@@](-[#6@@](-[#7](-[#6@](-[#6@@]-1(-[H])-[H])(-[H])-[H])-[#6@](-[H])(-[H])-[H])(-[H])-[H])(-[#6]1:[#6](-[#6@@](-[#6]3:[#6]-2:[#7]:[#6](:[#6](:[#6]:3-[H])-[H])-[H])(-[H])-[H]):[#6](:[#6](:[#6](:[#6]:1-[H])-[H])-[H])-[H])-[H]'],"['InChI=1S/C17H19N3/c1-19-9-10-20-16(12-19)15-7-3-2-5-13(15)11-14-6-4-8-18-17(14)20/h2-8,16H,9-12H2,1H3/t16-/m0/s1']",['RONZAEMNMFQXRA-INIZCTEOSA-N']
7hydroxyphenanthridine_cation->neut,4.39,7-hydroxy phenanthridine,"Mason, J. Chem. Soc. 1958, 674. jr9580000674","['[H]Oc1c([H])c([H])c([H])c2c1c([H])nc1c([H])c([H])c([H])c([H])c12', '[H]c1c([H])c2c3c([H])c([H])c([H])c([H])c3n([H])c([H])c-2c(=O)c1[H]']","['[#6]1(:[#6](:[#6]2:[#6](:[#6](:[#6]:1-[H])-[H]):[#6]1:[#6](:[#6](-[H]):[#6](:[#6](:[#6]:1-[H])-[H])-[H]):[#7]:[#6]:2-[H])-[#8]-[H])-[H]', '[#6]1(:[#6](:[#6]2-[#6](:[#6](:[#6]:1-[H])-[H]):[#6]1:[#6](:[#6](-[H]):[#6](:[#6](:[#6]:1-[H])-[H])-[H]):[#7](:[#6]:2-[H])-[H])=[#8])-[H]']","['InChI=1S/C13H9NO/c15-13-7-3-5-9-10-4-1-2-6-12(10)14-8-11(9)13/h1-8,15H', 'InChI=1S/C13H9NO/c15-13-7-3-5-9-10-4-1-2-6-12(10)14-8-11(9)13/h1-8,14H']","['PHGZKDSAVCRSPT-UHFFFAOYSA-N', 'KFMVKRSZQJNDMK-UHFFFAOYSA-N']"
7hydroxyphenanthridine_neut->an,8.68,7-hydroxy phenanthridine,"Mason, J. Chem. Soc. 1958, 674. jr9580000674","['[H]Oc1c([H])c([H])c([H])c2c1c([H])nc1c([H])c([H])c([H])c([H])c12', '[H]c1c([H])c2c3c([H])c([H])c([H])c([H])c3n([H])c([H])c-2c(=O)c1[H]']","['[#6]1(:[#6](:[#6]2:[#6](:[#6](:[#6]:1-[H])-[H]):[#6]1:[#6](:[#6](-[H]):[#6](:[#6](:[#6]:1-[H])-[H])-[H]):[#7]:[#6]:2-[H])-[#8]-[H])-[H]', '[#6]1(:[#6](:[#6]2-[#6](:[#6](:[#6]:1-[H])-[H]):[#6]1:[#6](:[#6](-[H]):[#6](:[#6](:[#6]:1-[H])-[H])-[H]):[#7](:[#6]:2-[H])-[H])=[#8])-[H]']","['InChI=1S/C13H9NO/c15-13-7-3-5-9-10-4-1-2-6-12(10)14-8-11(9)13/h1-8,15H', 'InChI=1S/C13H9NO/c15-13-7-3-5-9-10-4-1-2-6-12(10)14-8-11(9)13/h1-8,14H']","['PHGZKDSAVCRSPT-UHFFFAOYSA-N', 'KFMVKRSZQJNDMK-UHFFFAOYSA-N']"
1pyrroline_cation->neut,6.7,1-pyrroline,doi.org/10.1007/BF00988831,['[H]C1=NC([H])([H])C([H])([H])C1([H])[H]'],['[#7]1-[#6@](-[#6@](-[#6@](-[#6]=1-[H])(-[H])-[H])(-[H])-[H])(-[H])-[H]'],"['InChI=1S/C4H7N/c1-2-4-5-3-1/h3H,1-2,4H2']",['ZVJHJDDKYZXRJI-UHFFFAOYSA-N']
1piperideine_cation->neut,7.93,1-piperidine,doi.org/10.1007/BF00988831,['[H]C1=NC([H])([H])C([H])([H])C([H])([H])C1([H])[H]'],['[#7]1-[#6@](-[#6@](-[#6@](-[#6@](-[#6]=1-[H])(-[H])-[H])(-[H])-[H])(-[H])-[H])(-[H])-[H]'],"['InChI=1S/C5H9N/c1-2-4-6-5-3-1/h4H,1-3,5H2']",['DWKUKQRKVCMOLP-UHFFFAOYSA-N']
3piperideine_cation->neut,10.43,3-piperidine,doi.org/10.1007/BF00988831,['[H]C1=C([H])C([H])([H])C([H])([H])N([H])C1([H])[H]'],['[#7]1(-[#6@](-[#6@](-[#6](=[#6](-[#6@@]-1(-[H])-[H])-[H])-[H])(-[H])-[H])(-[H])-[H])-[H]'],"['InChI=1S/C5H9N/c1-2-4-6-5-3-1/h1-2,6H,3-5H2']",['FTAHXMZRJCZXDL-UHFFFAOYSA-N']
2methyl34dihydroquinazoline_cation->neut,10.16,"2-methyl-3,4-Dihydroquinazoline",10.1002/jcc.23068,"['[H]c1c([H])c([H])c2c(c1[H])N([H])C(C([H])([H])[H])=NC2([H])[H]', '[H]c1c([H])c([H])c2c(c1[H])N=C(C([H])([H])[H])N([H])C2([H])[H]']","['[#6]1(:[#6](:[#6]2:[#6](:[#6](:[#6]:1-[H])-[H])-[#6@@](-[#7]=[#6](-[#7]-2-[H])-[#6@@](-[H])(-[H])-[H])(-[H])-[H])-[H])-[H]', '[#6]1(:[#6](:[#6]2:[#6](:[#6](:[#6]:1-[H])-[H])-[#6@@](-[#7](-[#6](=[#7]-2)-[#6@@](-[H])(-[H])-[H])-[H])(-[H])-[H])-[H])-[H]']","['InChI=1S/C9H10N2/c1-7-10-6-8-4-2-3-5-9(8)11-7/h2-5H,6H2,1H3,(H,10,11)']",['OMXVPPKIGHREJO-UHFFFAOYSA-N']
quinmerac_neut->an,3.96,quinmerac,https://doi.org/10.1002/cmdc.200700059,"['[H]c1c(Cl)c(C(=O)[O-])c2c(c1[H])c([H])c(C([H])([H])[H])c([H])[n+]2[H]', '[H]OC(=O)c1c(Cl)c([H])c([H])c2c([H])c(C([H])([H])[H])c([H])nc12']","['[#17]-[#6]1:[#6](:[#6]2:[#7+](:[#6](:[#6](:[#6](:[#6]:2:[#6](:[#6]:1-[H])-[H])-[H])-[#6@@](-[H])(-[H])-[H])-[H])-[H])-[#6](=[#8])-[#8-]', '[#17]-[#6]1:[#6](:[#6]2:[#7]:[#6](:[#6](:[#6](:[#6]:2:[#6](:[#6]:1-[H])-[H])-[H])-[#6@@](-[H])(-[H])-[H])-[H])-[#6](-[#8]-[H])=[#8]']","['InChI=1S/C11H8ClNO2/c1-6-4-7-2-3-8(12)9(11(14)15)10(7)13-5-6/h2-5H,1H3,(H,14,15)']",['ALZOLUNSQWINIR-UHFFFAOYSA-N']
clopyralid_neut->an,2.32,clopyralid,https://doi.org/10.1002/(SICI)1096-9063(199607)47:3<265::AID-PS416>3.0.CO;2-Fopen_in_newPublisher,"['[H]OC(=O)c1nc(Cl)c([H])c([H])c1Cl', '[H]c1c([H])c(Cl)[n+]([H])c(C(=O)[O-])c1Cl']","['[#17]-[#6]1:[#6](:[#7]:[#6](-[#17]):[#6](:[#6]:1-[H])-[H])-[#6](-[#8]-[H])=[#8]', '[#17]-[#6]1:[#6](:[#7+](:[#6](-[#17]):[#6](:[#6]:1-[H])-[H])-[H])-[#6](=[#8])-[#8-]']","['InChI=1S/C6H3Cl2NO2/c7-3-1-2-4(8)9-5(3)6(10)11/h1-2H,(H,10,11)']",['HUBANNPOLNYSAD-UHFFFAOYSA-N']
1phenyl4methylurazole_neut->an,4.7,1-phenyl-4-methyl-urazole,10.1021/jo00019a034,"['[H]Oc1n(-c2c([H])c([H])c([H])c([H])c2[H])nc([O-])[n+]1C([H])([H])[H]', '[H]Oc1nn(-c2c([H])c([H])c([H])c([H])c2[H])c(=O)n1C([H])([H])[H]', '[H]c1c([H])c([H])c(-n2c(=O)n(C([H])([H])[H])c(=O)n2[H])c([H])c1[H]']","['[#8](-[#6]1:[#7](:[#7]:[#6](-[#8-]):[#7+]:1-[#6@@](-[H])(-[H])-[H])-[#6]1:[#6](:[#6](:[#6](:[#6](:[#6]:1-[H])-[H])-[H])-[H])-[H])-[H]', '[#8]=[#6]1:[#7](:[#7]:[#6](-[#8]-[H]):[#7]:1-[#6@@](-[H])(-[H])-[H])-[#6]1:[#6](:[#6](:[#6](:[#6](:[#6]:1-[H])-[H])-[H])-[H])-[H]', '[#8]=[#6]1:[#7](:[#7](:[#6](=[#8]):[#7]:1-[#6@@](-[H])(-[H])-[H])-[H])-[#6]1:[#6](:[#6](:[#6](:[#6](:[#6]:1-[H])-[H])-[H])-[H])-[H]']","['InChI=1S/C9H9N3O2/c1-11-8(13)10-12(9(11)14)7-5-3-2-4-6-7/h2-6H,1H3,(H,10,13)']",['XVVORNVNYKBZKT-UHFFFAOYSA-N']
1methylurazole_neut->an,5.3,1-methyl-urazole,10.1021/jo00019a034,['[H]n1c(=O)n([H])n(C([H])([H])[H])c1=O'],['[#8]=[#6]1:[#7](:[#7](:[#6](=[#8]):[#7]:1-[H])-[H])-[#6@](-[H])(-[H])-[H]'],"['InChI=1S/C3H5N3O2/c1-6-3(8)4-2(7)5-6/h1H3,(H2,4,5,7,8)']",['NENDRBATLNDSTO-UHFFFAOYSA-N']