compn,pKa,correct name,reference,smiles,smarts,inchi,inchiKey
isohistamine_2cation->cation,6.04,isohistamine,Lange's handbook of chemistry,['[H]c1nc(C([H])([H])C([H])([H])N([H])[H])n([H])c1[H]'],['[#7]1(:[#6](:[#7]:[#6](:[#6]:1-[H])-[H])-[#6@@](-[#6@](-[#7](-[H])-[H])(-[H])-[H])(-[H])-[H])-[H]'],"['InChI=1S/C5H9N3/c6-2-1-5-7-3-4-8-5/h3-4H,1-2,6H2,(H,7,8)']",['DEURIUYJZZLADZ-UHFFFAOYSA-N']
isohistamine_cation->neut,9.27,isohistamine,Lange's handbook of chemistry,['[H]c1nc(C([H])([H])C([H])([H])N([H])[H])n([H])c1[H]'],['[#7]1(:[#6](:[#7]:[#6](:[#6]:1-[H])-[H])-[#6@@](-[#6@](-[#7](-[H])-[H])(-[H])-[H])(-[H])-[H])-[H]'],"['InChI=1S/C5H9N3/c6-2-1-5-7-3-4-8-5/h3-4H,1-2,6H2,(H,7,8)']",['DEURIUYJZZLADZ-UHFFFAOYSA-N']
isoleucine_cation->neut,2.36,isoleucine,Lange's handbook of chemistry,['[H]C([H])([H])C([H])([H])[C@]([H])(C([H])([H])[H])[C@@]([H])(C(=O)[O-])[N+]([H])([H])[H]'],['[H]-[#7@@](-[H])(-[H])-[#6@](-[#6](=[#8])-[#8-])(-[#6@](-[#6@@](-[#6@](-[H])(-[H])-[H])(-[H])-[H])(-[#6@](-[H])(-[H])-[H])-[H])-[H]'],"['InChI=1S/C6H13NO2/c1-3-4(2)5(7)6(8)9/h4-5H,3,7H2,1-2H3,(H,8,9)/t4-,5-/m0/s1']",['AGPKZVBTJJNPAG-WHFBIAKZSA-N']
isoleucine_neut->an,9.68,isoleucine,Lange's handbook of chemistry,['[H]C([H])([H])C([H])([H])[C@]([H])(C([H])([H])[H])[C@@]([H])(C(=O)[O-])[N+]([H])([H])[H]'],['[H]-[#7@@](-[H])(-[H])-[#6@](-[#6](=[#8])-[#8-])(-[#6@](-[#6@@](-[#6@](-[H])(-[H])-[H])(-[H])-[H])(-[#6@](-[H])(-[H])-[H])-[H])-[H]'],"['InChI=1S/C6H13NO2/c1-3-4(2)5(7)6(8)9/h4-5H,3,7H2,1-2H3,(H,8,9)/t4-,5-/m0/s1']",['AGPKZVBTJJNPAG-WHFBIAKZSA-N']
lysergic_cation->neut,3.44,lysergic acid,profiles of drug substances excipiends and related (U),['[H]C1=C2c3c([H])c([H])c([H])c4c3c(c([H])n4[H])C([H])([H])[C@@]2([H])[N@+]([H])(C([H])([H])[H])C([H])([H])[C@]1([H])C(=O)[O-]'],['[#8]=[#6](-[#8-])-[#6@]1(-[#6@@](-[#7@+](-[#6@]2(-[#6](-[#6]3:[#6]4:[#6](-[#6@@]-2(-[H])-[H]):[#6](:[#7](:[#6]:4:[#6](:[#6](:[#6]:3-[H])-[H])-[H])-[H])-[H])=[#6]-1-[H])-[H])(-[#6@](-[H])(-[H])-[H])-[H])(-[H])-[H])-[H]'],"['InChI=1S/C16H16N2O2/c1-18-8-10(16(19)20)5-12-11-3-2-4-13-15(11)9(7-17-13)6-14(12)18/h2-5,7,10,14,17H,6,8H2,1H3,(H,19,20)/t10-,14-/m1/s1']",['ZAGRKAFMISFKIO-QMTHXVAHSA-N']
lysergic_neut->an,7.68,lysergic acid,profiles of drug substances excipiends and related (U),['[H]C1=C2c3c([H])c([H])c([H])c4c3c(c([H])n4[H])C([H])([H])[C@@]2([H])[N@+]([H])(C([H])([H])[H])C([H])([H])[C@]1([H])C(=O)[O-]'],['[#8]=[#6](-[#8-])-[#6@]1(-[#6@@](-[#7@+](-[#6@]2(-[#6](-[#6]3:[#6]4:[#6](-[#6@@]-2(-[H])-[H]):[#6](:[#7](:[#6]:4:[#6](:[#6](:[#6]:3-[H])-[H])-[H])-[H])-[H])=[#6]-1-[H])-[H])(-[#6@](-[H])(-[H])-[H])-[H])(-[H])-[H])-[H]'],"['InChI=1S/C16H16N2O2/c1-18-8-10(16(19)20)5-12-11-3-2-4-13-15(11)9(7-17-13)6-14(12)18/h2-5,7,10,14,17H,6,8H2,1H3,(H,19,20)/t10-,14-/m1/s1']",['ZAGRKAFMISFKIO-QMTHXVAHSA-N']
isopropylamine_cation->neut,10.64,isopropylamine,Lange's handbook of chemistry,['[H]N([H])C([H])(C([H])([H])[H])C([H])([H])[H]'],['[#7](-[#6@@](-[H])(-[#6@@](-[H])(-[H])-[H])-[#6@@](-[H])(-[H])-[H])(-[H])-[H]'],"['InChI=1S/C3H9N/c1-3(2)4/h3H,4H2,1-2H3']",['JJWLVOIRVHMVIS-UHFFFAOYSA-N']
isopropylmalonic_an->2an,5.88,isopropylmalonic acid,Lange's handbook of chemistry,['[H]OC(=O)C([H])(C(=O)O[H])C([H])(C([H])([H])[H])C([H])([H])[H]'],['[#8](-[#6](=[#8])-[#6@](-[#6@@](-[#6@@](-[H])(-[H])-[H])(-[#6@@](-[H])(-[H])-[H])-[H])(-[#6](-[#8]-[H])=[#8])-[H])-[H]'],"['InChI=1S/C6H10O4/c1-3(2)4(5(7)8)6(9)10/h3-4H,1-2H3,(H,7,8)(H,9,10)']",['DQEUFPARIOFOAI-UHFFFAOYSA-N']
isopropylmalonic_neut->an,2.94,isopropylmalonic acid,Lange's handbook of chemistry,['[H]OC(=O)C([H])(C(=O)O[H])C([H])(C([H])([H])[H])C([H])([H])[H]'],['[#8](-[#6](=[#8])-[#6@](-[#6@@](-[#6@@](-[H])(-[H])-[H])(-[#6@@](-[H])(-[H])-[H])-[H])(-[#6](-[#8]-[H])=[#8])-[H])-[H]'],"['InChI=1S/C6H10O4/c1-3(2)4(5(7)8)6(9)10/h3-4H,1-2H3,(H,7,8)(H,9,10)']",['DQEUFPARIOFOAI-UHFFFAOYSA-N']
isopropylphosphinic_neut->an,3.56,isopropylphofphinic acid,Lange's handbook of chemistry,['[H+].[H]OP([O-])C([H])(C([H])([H])[H])C([H])([H])[H]'],['[#15](-[#8]-[H])(-[#8-])-[#6@@](-[H])(-[#6@@](-[H])(-[H])-[H])-[#6@@](-[H])(-[H])-[H].[H+]'],"['InChI=1S/C3H8O2P/c1-3(2)6(4)5/h3-4H,1-2H3/q-1/p+1']",['KFRDIQKHLCMOQI-UHFFFAOYSA-O']
isoquinoline_cation->neut,5.4,isoquinoline,Lange's handbook of chemistry,['[H]c1nc([H])c2c([H])c([H])c([H])c([H])c2c1[H]'],['[#6]1(:[#6](:[#6]2:[#6](:[#6](:[#6]:1-[H])-[H]):[#6](:[#6](-[H]):[#7]:[#6]:2-[H])-[H])-[H])-[H]'],['InChI=1S/C9H7N/c1-2-4-9-7-10-6-5-8(9)3-1/h1-7H'],['AWJUIBRHMBBTKR-UHFFFAOYSA-N']
isoretronecanol_cation->neut,10.83,isoretronecanol,Lange's handbook of chemistry,['[H]OC([H])([H])[C@@]1([H])C([H])([H])C([H])([H])N2C([H])([H])C([H])([H])C([H])([H])[C@]21[H]'],['[#8](-[#6@@](-[#6@@]1(-[#6@]2(-[#7](-[#6@](-[#6@@]-1(-[H])-[H])(-[H])-[H])-[#6@](-[#6@](-[#6@@]-2(-[H])-[H])(-[H])-[H])(-[H])-[H])-[H])-[H])(-[H])-[H])-[H]'],"['InChI=1S/C8H15NO/c10-6-7-3-5-9-4-1-2-8(7)9/h7-8,10H,1-6H2/t7-,8+/m1/s1']",['LOFDEIYZIAVXHE-SFYZADRCSA-N']
isothiazole_cation->neut,-0.5,isothiazole,10.1002/jcc.23068,['[H]c1nsc([H])c1[H]'],['[#6]1(:[#6](:[#6](:[#16]:[#7]:1)-[H])-[H])-[H]'],['InChI=1S/C3H3NS/c1-2-4-5-3-1/h1-3H'],['ZLTPDFXIESTBQG-UHFFFAOYSA-N']
isoserine_cation->neut,2.72,d-isoserine,Lange's handbook of chemistry,['[H]O[C@@]([H])(C(=O)[O-])C([H])([H])[N+]([H])([H])[H]'],['[#8](-[#6@](-[#6@@](-[#7@+](-[H])(-[H])-[H])(-[H])-[H])(-[#6](=[#8])-[#8-])-[H])-[H]'],"['InChI=1S/C3H7NO3/c4-1-2(5)3(6)7/h2,5H,1,4H2,(H,6,7)/t2-/m1/s1']",['BMYNFMYTOJXKLE-UWTATZPHSA-N']
isoserine_neut->an,9.25,d-isoserine,Lange's handbook of chemistry,['[H]O[C@@]([H])(C(=O)[O-])C([H])([H])[N+]([H])([H])[H]'],['[#8](-[#6@](-[#6@@](-[#7@+](-[H])(-[H])-[H])(-[H])-[H])(-[#6](=[#8])-[#8-])-[H])-[H]'],"['InChI=1S/C3H7NO3/c4-1-2(5)3(6)7/h2,5H,1,4H2,(H,6,7)/t2-/m1/s1']",['BMYNFMYTOJXKLE-UWTATZPHSA-N']
isovanillin_neut->an,8.89,isovanillin,Lange's handbook of chemistry,['[H]Oc1c([H])c(C([H])=O)c([H])c([H])c1OC([H])([H])[H]'],['[#8](-[#6]1:[#6](-[#8]-[H]):[#6](:[#6](:[#6](:[#6]:1-[H])-[H])-[#6](=[#8])-[H])-[H])-[#6@](-[H])(-[H])-[H]'],"['InChI=1S/C8H8O3/c1-11-8-3-2-6(5-9)4-7(8)10/h2-5,10H,1H3']",['JVTZFYYHCGSXJV-UHFFFAOYSA-N']
itaconic_an->2an,5.45,itaconic acid,http://www.zirchrom.com/organic.htm,['[H]OC(=O)C(=C([H])[H])C([H])([H])C(=O)O[H]'],['[#6](=[#6](-[#6@](-[H])(-[H])-[#6](=[#8])-[#8]-[H])-[#6](-[#8]-[H])=[#8])(-[H])-[H]'],"['InChI=1S/C5H6O4/c1-3(5(8)9)2-4(6)7/h1-2H2,(H,6,7)(H,8,9)']",['LVHBHZANLOWSRM-UHFFFAOYSA-N']
itaconic_neut->an,3.63,itaconic acid,"Schwarzenbach, B. Maissen, and H. Ackermann. Helv. Chim. Acta 35, 2337 (1952).",['[H]OC(=O)C(=C([H])[H])C([H])([H])C(=O)O[H]'],['[#6](=[#6](-[#6@](-[H])(-[H])-[#6](=[#8])-[#8]-[H])-[#6](-[#8]-[H])=[#8])(-[H])-[H]'],"['InChI=1S/C5H6O4/c1-3(5(8)9)2-4(6)7/h1-2H2,(H,6,7)(H,8,9)']",['LVHBHZANLOWSRM-UHFFFAOYSA-N']
lactic_neut->an,3.86,lactic acid,profiles of drug substances excipiends and related (R),['[H]OC(=O)[C@]([H])(O[H])C([H])([H])[H]'],['[#6](=[#8])(-[#8]-[H])-[#6@@](-[H])(-[#6@](-[H])(-[H])-[H])-[#8]-[H]'],"['InChI=1S/C3H6O3/c1-2(4)3(5)6/h2,4H,1H3,(H,5,6)/t2-/m1/s1']",['JVTAAEKCZFNVCJ-UWTATZPHSA-N']
leucine_cation->neut,2.33,leucine,Lange's handbook of chemistry,['[H]C([H])([H])C([H])(C([H])([H])[H])C([H])([H])[C@@]([H])(C(=O)[O-])[N+]([H])([H])[H]'],['[H]-[#7@@](-[H])(-[H])-[#6@](-[#6](=[#8])-[#8-])(-[#6@](-[#6@@](-[#6@@](-[H])(-[H])-[H])(-[#6@@](-[H])(-[H])-[H])-[H])(-[H])-[H])-[H]'],"['InChI=1S/C6H13NO2/c1-4(2)3-5(7)6(8)9/h4-5H,3,7H2,1-2H3,(H,8,9)/t5-/m0/s1']",['ROHFNLRQFUQHCH-YFKPBYRVSA-N']
leucine_neut->an,9.6,leucine,Lange's handbook of chemistry,['[H]C([H])([H])C([H])(C([H])([H])[H])C([H])([H])[C@@]([H])(C(=O)[O-])[N+]([H])([H])[H]'],['[H]-[#7@@](-[H])(-[H])-[#6@](-[#6](=[#8])-[#8-])(-[#6@](-[#6@@](-[#6@@](-[H])(-[H])-[H])(-[#6@@](-[H])(-[H])-[H])-[H])(-[H])-[H])-[H]'],"['InChI=1S/C6H13NO2/c1-4(2)3-5(7)6(8)9/h4-5H,3,7H2,1-2H3,(H,8,9)/t5-/m0/s1']",['ROHFNLRQFUQHCH-YFKPBYRVSA-N']
lumacine_neut->an,7.92,lumazine,Lange's handbook of chemistry,['[H]c1nc2c(=O)n([H])c(=O)n([H])c2nc1[H]'],['[#8]=[#6]1:[#7](:[#6](=[#8]):[#7](:[#6]2:[#7]:[#6](:[#6](:[#7]:[#6]:2:1)-[H])-[H])-[H])-[H]'],"['InChI=1S/C6H4N4O2/c11-5-3-4(8-2-1-7-3)9-6(12)10-5/h1-2H,(H2,8,9,10,11,12)']",['UYEUUXMDVNYCAM-UHFFFAOYSA-N']
isolysergic_cation->neut,3.33,isolysergic acid,Lange's handbook of chemistry,"['[H]C1=C2c3c([H])c([H])c([H])c4c3c(c([H])n4[H])C([H])([H])[C@@]2([H])[N@+]([H])(C([H])([H])[H])C([H])([H])[C@@]1([H])C(=O)[O-]', '[H]C1=C2c3c([H])c([H])c([H])c4c3c(c([H])n4[H])C([H])([H])[C@@]2([H])[N@@+]([H])(C([H])([H])[H])C([H])([H])[C@@]1([H])C(=O)[O-]']","['[#8]=[#6](-[#8-])-[#6@@]1(-[#6@@](-[#7@+](-[#6@]2(-[#6](-[#6]3:[#6]4:[#6](-[#6@@]-2(-[H])-[H]):[#6](:[#7](:[#6]:4:[#6](:[#6](:[#6]:3-[H])-[H])-[H])-[H])-[H])=[#6]-1-[H])-[H])(-[#6@](-[H])(-[H])-[H])-[H])(-[H])-[H])-[H]', '[#8]=[#6](-[#8-])-[#6@@]1(-[#6@@](-[#7@@+](-[#6@]2(-[#6](-[#6]3:[#6]4:[#6](-[#6@@]-2(-[H])-[H]):[#6](:[#7](:[#6]:4:[#6](:[#6](:[#6]:3-[H])-[H])-[H])-[H])-[H])=[#6]-1-[H])-[H])(-[#6@](-[H])(-[H])-[H])-[H])(-[H])-[H])-[H]']","['InChI=1S/C16H16N2O2/c1-18-8-10(16(19)20)5-12-11-3-2-4-13-15(11)9(7-17-13)6-14(12)18/h2-5,7,10,14,17H,6,8H2,1H3,(H,19,20)/t10-,14+/m0/s1']",['ZAGRKAFMISFKIO-IINYFYTJSA-N']
isolysergic_neut->an,8.46,isolysergic acid,Lange's handbook of chemistry,"['[H]C1=C2c3c([H])c([H])c([H])c4c3c(c([H])n4[H])C([H])([H])[C@@]2([H])[N@+]([H])(C([H])([H])[H])C([H])([H])[C@@]1([H])C(=O)[O-]', '[H]C1=C2c3c([H])c([H])c([H])c4c3c(c([H])n4[H])C([H])([H])[C@@]2([H])[N@@+]([H])(C([H])([H])[H])C([H])([H])[C@@]1([H])C(=O)[O-]']","['[#8]=[#6](-[#8-])-[#6@@]1(-[#6@@](-[#7@+](-[#6@]2(-[#6](-[#6]3:[#6]4:[#6](-[#6@@]-2(-[H])-[H]):[#6](:[#7](:[#6]:4:[#6](:[#6](:[#6]:3-[H])-[H])-[H])-[H])-[H])=[#6]-1-[H])-[H])(-[#6@](-[H])(-[H])-[H])-[H])(-[H])-[H])-[H]', '[#8]=[#6](-[#8-])-[#6@@]1(-[#6@@](-[#7@@+](-[#6@]2(-[#6](-[#6]3:[#6]4:[#6](-[#6@@]-2(-[H])-[H]):[#6](:[#7](:[#6]:4:[#6](:[#6](:[#6]:3-[H])-[H])-[H])-[H])-[H])=[#6]-1-[H])-[H])(-[#6@](-[H])(-[H])-[H])-[H])(-[H])-[H])-[H]']","['InChI=1S/C16H16N2O2/c1-18-8-10(16(19)20)5-12-11-3-2-4-13-15(11)9(7-17-13)6-14(12)18/h2-5,7,10,14,17H,6,8H2,1H3,(H,19,20)/t10-,14+/m0/s1']",['ZAGRKAFMISFKIO-IINYFYTJSA-N']
lysine_2cation->cation,2.18,lysine,Lange's handbook of chemistry,"['[H]N([H])C([H])([H])C([H])([H])C([H])([H])C([H])([H])[C@@]([H])(C(=O)[O-])[N+]([H])([H])[H]', '[H]N([H])[C@]([H])(C(=O)[O-])C([H])([H])C([H])([H])C([H])([H])C([H])([H])[N+]([H])([H])[H]']","['[H]-[#7@@](-[H])(-[H])-[#6@](-[#6](=[#8])-[#8-])(-[#6@](-[#6@](-[#6@@](-[#6@](-[#7](-[H])-[H])(-[H])-[H])(-[H])-[H])(-[H])-[H])(-[H])-[H])-[H]', '[#7](-[H])(-[H])-[#6@](-[#6](=[#8])-[#8-])(-[#6@](-[#6@](-[#6@@](-[#6@](-[#7@@+](-[H])(-[H])-[H])(-[H])-[H])(-[H])-[H])(-[H])-[H])(-[H])-[H])-[H]']","['InChI=1S/C6H14N2O2/c7-4-2-1-3-5(8)6(9)10/h5H,1-4,7-8H2,(H,9,10)/t5-/m0/s1']",['KDXKERNSBIXSRK-YFKPBYRVSA-N']
lysine_cation->neut,8.94,lysine,Lange's handbook of chemistry,"['[H]N([H])C([H])([H])C([H])([H])C([H])([H])C([H])([H])[C@@]([H])(C(=O)[O-])[N+]([H])([H])[H]', '[H]N([H])[C@]([H])(C(=O)[O-])C([H])([H])C([H])([H])C([H])([H])C([H])([H])[N+]([H])([H])[H]']","['[H]-[#7@@](-[H])(-[H])-[#6@](-[#6](=[#8])-[#8-])(-[#6@](-[#6@](-[#6@@](-[#6@](-[#7](-[H])-[H])(-[H])-[H])(-[H])-[H])(-[H])-[H])(-[H])-[H])-[H]', '[#7](-[H])(-[H])-[#6@](-[#6](=[#8])-[#8-])(-[#6@](-[#6@](-[#6@@](-[#6@](-[#7@@+](-[H])(-[H])-[H])(-[H])-[H])(-[H])-[H])(-[H])-[H])(-[H])-[H])-[H]']","['InChI=1S/C6H14N2O2/c7-4-2-1-3-5(8)6(9)10/h5H,1-4,7-8H2,(H,9,10)/t5-/m0/s1']",['KDXKERNSBIXSRK-YFKPBYRVSA-N']
lysine_neut->an,10.53,lysine,Lange's handbook of chemistry,"['[H]N([H])C([H])([H])C([H])([H])C([H])([H])C([H])([H])[C@@]([H])(C(=O)[O-])[N+]([H])([H])[H]', '[H]N([H])[C@]([H])(C(=O)[O-])C([H])([H])C([H])([H])C([H])([H])C([H])([H])[N+]([H])([H])[H]']","['[H]-[#7@@](-[H])(-[H])-[#6@](-[#6](=[#8])-[#8-])(-[#6@](-[#6@](-[#6@@](-[#6@](-[#7](-[H])-[H])(-[H])-[H])(-[H])-[H])(-[H])-[H])(-[H])-[H])-[H]', '[#7](-[H])(-[H])-[#6@](-[#6](=[#8])-[#8-])(-[#6@](-[#6@](-[#6@@](-[#6@](-[#7@@+](-[H])(-[H])-[H])(-[H])-[H])(-[H])-[H])(-[H])-[H])(-[H])-[H])-[H]']","['InChI=1S/C6H14N2O2/c7-4-2-1-3-5(8)6(9)10/h5H,1-4,7-8H2,(H,9,10)/t5-/m0/s1']",['KDXKERNSBIXSRK-YFKPBYRVSA-N']
m-acetylaniline_cation->neut,3.58,m-acetylaniline,10.1002/jcc.23068,['[H]c1c([H])c(C(=O)C([H])([H])[H])c([H])c(N([H])[H])c1[H]'],['[#6]1(:[#6](:[#6](:[#6](:[#6](:[#6]:1-[H])-[H])-[H])-[#7](-[H])-[H])-[H])-[#6](=[#8])-[#6@@](-[H])(-[H])-[H]'],"['InChI=1S/C8H9NO/c1-6(10)7-3-2-4-8(9)5-7/h2-5H,9H2,1H3']",['CKQHAYFOPRIUOM-UHFFFAOYSA-N']
m-acetylphenol_neut->an,9.19,m-acetylphenol,10.1021/ja012474j,['[H]Oc1c([H])c([H])c([H])c(C(=O)C([H])([H])[H])c1[H]'],['[#6]1(:[#6](:[#6](:[#6](:[#6](:[#6]:1-[H])-[H])-[#6](=[#8])-[#6@@](-[H])(-[H])-[H])-[H])-[#8]-[H])-[H]'],"['InChI=1S/C8H8O2/c1-6(9)7-3-2-4-8(10)5-7/h2-5,10H,1H3']",['LUJMEECXHPYQOF-UHFFFAOYSA-N']
m-aminophenol_neut->an,9.87,m-aminophenol,Lange's handbook of chemistry,['[H]Oc1c([H])c([H])c([H])c(N([H])[H])c1[H]'],['[#6]1(:[#6](:[#6](:[#6](:[#6](:[#6]:1-[H])-[#7](-[H])-[H])-[H])-[#8]-[H])-[H])-[H]'],"['InChI=1S/C6H7NO/c7-5-2-1-3-6(8)4-5/h1-4,8H,7H2']",['CWLKGDAVCFYWJK-UHFFFAOYSA-N']
m-chlorobenzoic_neut->an,3.83,m-chlorobenzoic acid,Lange's handbook of chemistry,['[H]OC(=O)c1c([H])c([H])c([H])c(Cl)c1[H]'],['[#6]1(:[#6](:[#6](:[#6](:[#6](:[#6]:1-[#17])-[H])-[H])-[H])-[#6](=[#8])-[#8]-[H])-[H]'],"['InChI=1S/C7H5ClO2/c8-6-3-1-2-5(4-6)7(9)10/h1-4H,(H,9,10)']",['LULAYUGMBFYYEX-UHFFFAOYSA-N']
m-chlorophenol_neut->an,9.1,m-chlorophenol,Lange's handbook of chemistry,['[H]Oc1c([H])c([H])c([H])c(Cl)c1[H]'],['[#6]1(:[#6](:[#6](:[#6](:[#6](:[#6]:1-[H])-[#17])-[H])-[#8]-[H])-[H])-[H]'],"['InChI=1S/C6H5ClO/c7-5-2-1-3-6(8)4-5/h1-4,8H']",['HORNXRXVQWOLPJ-UHFFFAOYSA-N']
m-claniline_cation->neut,3.52,m-chloraniline,Lange's handbook of chemistry,['[H]c1c([H])c(Cl)c([H])c(N([H])[H])c1[H]'],['[#6]1(:[#6](:[#6](:[#6](:[#6](:[#6]:1-[H])-[H])-[H])-[#7](-[H])-[H])-[H])-[#17]'],"['InChI=1S/C6H6ClN/c7-5-2-1-3-6(8)4-5/h1-4H,8H2']",['PNPCRKVUWYDDST-UHFFFAOYSA-N']
m-cresol_neut->an,10,m-cresol,Lange's handbook of chemistry,['[H]Oc1c([H])c([H])c([H])c(C([H])([H])[H])c1[H]'],['[#6]1(:[#6](:[#6](:[#6](:[#6](:[#6]:1-[H])-[H])-[#8]-[H])-[H])-[#6@@](-[H])(-[H])-[H])-[H]'],"['InChI=1S/C7H8O/c1-6-3-2-4-7(8)5-6/h2-5,8H,1H3']",['RLSSMJSEOOYNOY-UHFFFAOYSA-N']
m-cyanobenzoic_neut->an,3.6,m-cyanobenzoic acid,Lange's handbook of chemistry,['[H]OC(=O)c1c([H])c([H])c([H])c(C#N)c1[H]'],['[#6]1(:[#6](:[#6](:[#6](:[#6](:[#6]:1-[#6]#[#7])-[H])-[H])-[H])-[#6](=[#8])-[#8]-[H])-[H]'],"['InChI=1S/C8H5NO2/c9-5-6-2-1-3-7(4-6)8(10)11/h1-4H,(H,10,11)']",['GYLKKXHEIIFTJH-UHFFFAOYSA-N']
m-cyanophenol_neut->an,8.61,m-cyanophenol,Lange's handbook of chemistry,['[H]Oc1c([H])c([H])c([H])c(C#N)c1[H]'],['[#6]1(:[#6](:[#6](:[#6](:[#6](:[#6]:1-[H])-[#6]#[#7])-[H])-[#8]-[H])-[H])-[H]'],"['InChI=1S/C7H5NO/c8-5-6-2-1-3-7(9)4-6/h1-4,9H']",['SGHBRHKBCLLVCI-UHFFFAOYSA-N']
m-fluorobenzoic_neut->an,3.87,m-fluorobenzoic acid,Lange's handbook of chemistry,['[H]OC(=O)c1c([H])c([H])c([H])c(F)c1[H]'],['[#6]1(:[#6](:[#6](:[#6](:[#6](:[#6]:1-[#9])-[H])-[H])-[H])-[#6](-[#8]-[H])=[#8])-[H]'],"['InChI=1S/C7H5FO2/c8-6-3-1-2-5(4-6)7(9)10/h1-4H,(H,9,10)']",['MXNBDFWNYRNIBH-UHFFFAOYSA-N']
m-fluorophenol_neut->an,9.29,m-fluorophenol,Lange's handbook of chemistry,['[H]Oc1c([H])c([H])c([H])c(F)c1[H]'],['[#6]1(:[#6](:[#6](:[#6](:[#6](:[#6]:1-[H])-[#9])-[H])-[#8]-[H])-[H])-[H]'],"['InChI=1S/C6H5FO/c7-5-2-1-3-6(8)4-5/h1-4,8H']",['SJTBRFHBXDZMPS-UHFFFAOYSA-N']
m-hydroxybenzoic_neut->an,4.08,m-hydroxybenzoic acid,Lange's handbook of chemistry,['[H]OC(=O)c1c([H])c([H])c([H])c(O[H])c1[H]'],['[#6]1(:[#6](:[#6](:[#6](:[#6](:[#6]:1-[#8]-[H])-[H])-[H])-[H])-[#6](=[#8])-[#8]-[H])-[H]'],"['InChI=1S/C7H6O3/c8-6-3-1-2-5(4-6)7(9)10/h1-4,8H,(H,9,10)']",['IJFXRHURBJZNAO-UHFFFAOYSA-N']
m-hydroxybenzoic_an->2an,9.85,m-hydroxybenzoic acid,Lange's handbook of chemistry,['[H]OC(=O)c1c([H])c([H])c([H])c(O[H])c1[H]'],['[#6]1(:[#6](:[#6](:[#6](:[#6](:[#6]:1-[#8]-[H])-[H])-[H])-[H])-[#6](=[#8])-[#8]-[H])-[H]'],"['InChI=1S/C7H6O3/c8-6-3-1-2-5(4-6)7(9)10/h1-4,8H,(H,9,10)']",['IJFXRHURBJZNAO-UHFFFAOYSA-N']
m-hydroxyphenol_neut->an,9.2,m-hydroxyphenol,https://doi.org/10.1016/j.saa.2004.03.020,['[H]Oc1c([H])c([H])c([H])c(O[H])c1[H]'],['[#6]1(:[#6](:[#6](:[#6](:[#6](:[#6]:1-[H])-[#8]-[H])-[H])-[#8]-[H])-[H])-[H]'],"['InChI=1S/C6H6O2/c7-5-2-1-3-6(8)4-5/h1-4,7-8H']",['GHMLBKRAJCXXBS-UHFFFAOYSA-N']
m-hydroxyphenol_an->2an,10.9,m-hydroxyphenol,https://doi.org/10.1016/j.saa.2004.03.020,['[H]Oc1c([H])c([H])c([H])c(O[H])c1[H]'],['[#6]1(:[#6](:[#6](:[#6](:[#6](:[#6]:1-[H])-[#8]-[H])-[H])-[#8]-[H])-[H])-[H]'],"['InChI=1S/C6H6O2/c7-5-2-1-3-6(8)4-5/h1-4,7-8H']",['GHMLBKRAJCXXBS-UHFFFAOYSA-N']
m-methoxybenzoic_neut->an,4.08,m-methoxybenzoic acid,Lange's handbook of chemistry,['[H]OC(=O)c1c([H])c([H])c([H])c(OC([H])([H])[H])c1[H]'],['[#6]1(:[#6](:[#6](:[#6](:[#6](:[#6]:1-[#8]-[#6@@](-[H])(-[H])-[H])-[H])-[H])-[H])-[#6](=[#8])-[#8]-[H])-[H]'],"['InChI=1S/C8H8O3/c1-11-7-4-2-3-6(5-7)8(9)10/h2-5H,1H3,(H,9,10)']",['XHQZJYCNDZAGLW-UHFFFAOYSA-N']
m-methoxyphenol_neut->an,9.65,m-methoxyphenol,Lange's handbook of chemistry,['[H]Oc1c([H])c([H])c([H])c(OC([H])([H])[H])c1[H]'],['[#6]1(:[#6](:[#6](:[#6](:[#6](:[#6]:1-[H])-[H])-[H])-[#8]-[H])-[H])-[#8]-[#6@@](-[H])(-[H])-[H]'],"['InChI=1S/C7H8O2/c1-9-7-4-2-3-6(8)5-7/h2-5,8H,1H3']",['ASHGTJPOSUFTGB-UHFFFAOYSA-N']
m-methylbenzoic_neut->an,4.27,m-methylbenzoic acid,Lange's handbook of chemistry,['[H]OC(=O)c1c([H])c([H])c([H])c(C([H])([H])[H])c1[H]'],['[#6]1(:[#6](:[#6](:[#6](:[#6](:[#6]:1-[#6@@](-[H])(-[H])-[H])-[H])-[H])-[H])-[#6](=[#8])-[#8]-[H])-[H]'],"['InChI=1S/C8H8O2/c1-6-3-2-4-7(5-6)8(9)10/h2-5H,1H3,(H,9,10)']",['GPSDUZXPYCFOSQ-UHFFFAOYSA-N']
m-nitroaniline_cation->neut,2.5,m-nitroaniline,Lange's handbook of chemistry,['[H]c1c([H])c(N([H])[H])c([H])c([N+](=O)[O-])c1[H]'],['[#6]1(:[#6](:[#6](:[#6](:[#6](:[#6]:1-[H])-[#7+](=[#8])-[#8-])-[H])-[#7](-[H])-[H])-[H])-[H]'],"['InChI=1S/C6H6N2O2/c7-5-2-1-3-6(4-5)8(9)10/h1-4H,7H2']",['XJCVRTZCHMZPBD-UHFFFAOYSA-N']
m-nitrobenzoic_neut->an,3.46,m-nitrobenzoic acid,Lange's handbook of chemistry,['[H]OC(=O)c1c([H])c([H])c([H])c([N+](=O)[O-])c1[H]'],['[#6]1(:[#6](:[#6](:[#6](:[#6](:[#6]:1-[H])-[#6](=[#8])-[#8]-[H])-[H])-[#7+](=[#8])-[#8-])-[H])-[H]'],"['InChI=1S/C7H5NO4/c9-7(10)5-2-1-3-6(4-5)8(11)12/h1-4H,(H,9,10)']",['AFPHTEQTJZKQAQ-UHFFFAOYSA-N']
m-nitrophenol_neut->an,8.36,m-nitrophenol,Lange's handbook of chemistry,['[H]Oc1c([H])c([H])c([H])c([N+](=O)[O-])c1[H]'],['[#6]1(:[#6](:[#6](:[#6](:[#6](:[#6]:1-[H])-[#7+](=[#8])-[#8-])-[H])-[#8]-[H])-[H])-[H]'],"['InChI=1S/C6H5NO3/c8-6-3-1-2-5(4-6)7(9)10/h1-4,8H']",['RTZZCYNQPHTPPL-UHFFFAOYSA-N']
m-phenylphenol_neut->an,9.63,m-phenylphenol,Lange's handbook of chemistry,['[H]Oc1c([H])c([H])c([H])c(-c2c([H])c([H])c([H])c([H])c2[H])c1[H]'],['[#6]1(:[#6](:[#6](:[#6](:[#6](:[#6]:1-[H])-[#6]1:[#6](:[#6](:[#6](:[#6](:[#6]:1-[H])-[H])-[H])-[H])-[H])-[H])-[#8]-[H])-[H])-[H]'],"['InChI=1S/C12H10O/c13-12-8-4-7-11(9-12)10-5-2-1-3-6-10/h1-9,13H']",['UBXYXCRCOKCZIT-UHFFFAOYSA-N']
m-trifluoromethylaniline_cation->neut,3.5,m-trifluoromethylaniline,Lange's handbook of chemistry,['[H]c1c([H])c(N([H])[H])c([H])c(C(F)(F)F)c1[H]'],['[#6]1(:[#6](:[#6](:[#6](:[#6](:[#6]:1-[H])-[H])-[H])-[#7](-[H])-[H])-[H])-[#6@](-[#9])(-[#9])-[#9]'],"['InChI=1S/C7H6F3N/c8-7(9,10)5-2-1-3-6(11)4-5/h1-4H,11H2']",['VIUDTWATMPPKEL-UHFFFAOYSA-N']
maleic_neut->an,1.92,maleic acid,profiles of drug substances excipiends and related (A),['[H]OC(=O)/C([H])=C(/[H])C(=O)O[H]'],['[#6](=[#8])(-[#8]-[H])/[#6](=[#6](/[H])-[#6](=[#8])-[#8]-[H])-[H]'],"['InChI=1S/C4H4O4/c5-3(6)1-2-4(7)8/h1-2H,(H,5,6)(H,7,8)/b2-1-']",['VZCYOOQTPOCHFL-UPHRSURJSA-N']
maleic_an->2an,6.23,maleic acid,profiles of drug substances excipiends and related (A),['[H]OC(=O)/C([H])=C(/[H])C(=O)O[H]'],['[#6](=[#8])(-[#8]-[H])/[#6](=[#6](/[H])-[#6](=[#8])-[#8]-[H])-[H]'],"['InChI=1S/C4H4O4/c5-3(6)1-2-4(7)8/h1-2H,(H,5,6)(H,7,8)/b2-1-']",['VZCYOOQTPOCHFL-UPHRSURJSA-N']