compn,pKa,correct name,reference,smiles,smarts,inchi,inchiKey
2amino7sulfanylidene38dihydropteridin4one_cation->neut,-0.92,"2-Amino-7-sulfanylidene-3,8-dihydropteridin-4-one",10.1002/hlca.19920750718,"['[H]Oc1nc(N([H])[H])n([H])c2nc(=S)c([H])nc1-2', '[H]Oc1nc(=[N+]([H])[H])nc2[n-]c([S-])c([H])[n+]([H])c1-2', '[H]c1c(=S)n([H])c2nc(N([H])[H])nc([O-])c2[n+]1[H]', '[H]Oc1nc(N([H])[H])nc2c1nc([H])c(=S)n2[H]', '[H]c1nc2c(=O)nc(N([H])[H])n([H])c2n([H])c1=S', '[H]c1c(=S)nc2nc(N([H])[H])n([H])c([O-])c-2[n+]1[H]', '[H]c1c(=S)nc2n([H])c(N([H])[H])nc([O-])c-2[n+]1[H]', '[H]Oc1c2nc([H])c(=S)nc-2nc(N([H])[H])n1[H]', '[H]c1nc2c([O-])n([H])c(=[N+]([H])[H])n([H])c-2nc1=S', '[H]c1nc2c(=O)n([H])c(N([H])[H])nc2n([H])c1=S']","['[#16]=[#6]1:[#7]:[#6]2:[#7](:[#6](:[#7]:[#6](-[#8]-[H]):[#6]-2:[#7]:[#6]:1-[H])-[#7](-[H])-[H])-[H]', '[#16]-[#6]1:[#7-]:[#6]2:[#7]:[#6](:[#7]:[#6](-[#8]-[H]):[#6]-2:[#7+](:[#6]:1-[H])-[H])=[#7+](-[H])-[H]', '[#16]=[#6]1:[#7](:[#6]2:[#7]:[#6](:[#7]:[#6](-[#8-]):[#6]:2:[#7+](:[#6]:1-[H])-[H])-[#7](-[H])-[H])-[H]', '[#16]=[#6]1:[#7](:[#6]2:[#7]:[#6](:[#7]:[#6](-[#8]-[H]):[#6]:2:[#7]:[#6]:1-[H])-[#7](-[H])-[H])-[H]', '[#16]=[#6]1:[#7](:[#6]2:[#7](:[#6](:[#7]:[#6](=[#8]):[#6]:2:[#7]:[#6]:1-[H])-[#7](-[H])-[H])-[H])-[H]', '[#16]=[#6]1:[#7]:[#6]2:[#7]:[#6](:[#7](:[#6](-[#8-]):[#6]-2:[#7+](:[#6]:1-[H])-[H])-[H])-[#7](-[H])-[H]', '[#16]=[#6]1:[#7]:[#6]2:[#7](:[#6](:[#7]:[#6](-[#8-]):[#6]-2:[#7+](:[#6]:1-[H])-[H])-[#7](-[H])-[H])-[H]', '[#16]=[#6]1:[#7]:[#6]2:[#7]:[#6](:[#7](:[#6](-[#8]-[H]):[#6]-2:[#7]:[#6]:1-[H])-[H])-[#7](-[H])-[H]', '[#16]=[#6]1:[#7]:[#6]2:[#7](:[#6](:[#7](:[#6](-[#8-]):[#6]-2:[#7]:[#6]:1-[H])-[H])=[#7+](-[H])-[H])-[H]', '[#16]=[#6]1:[#7](:[#6]2:[#7]:[#6](:[#7](:[#6](=[#8]):[#6]:2:[#7]:[#6]:1-[H])-[H])-[#7](-[H])-[H])-[H]']","['InChI=1S/C6H5N5OS/c7-6-10-4-3(5(12)11-6)8-1-2(13)9-4/h1H,(H4,7,9,10,11,12,13)', 'InChI=1S/C6H4N5OS/c7-6-10-4-3(5(12)11-6)8-1-2(13)9-4/h1H,(H3-,7,9,10,11,12,13)/q-1/p+1']","['NBTVHQSEDMRUIB-UHFFFAOYSA-N', 'LERDEBQSTXSDAO-UHFFFAOYSA-O']"
2amino7sulfanylidene38dihydropteridin4one_neut->an,5.82,"2-Amino-7-sulfanylidene-3,8-dihydropteridin-4-one",10.1002/hlca.19920750718,"['[H]Oc1nc(N([H])[H])n([H])c2nc(=S)c([H])nc1-2', '[H]Oc1nc(=[N+]([H])[H])nc2[n-]c([S-])c([H])[n+]([H])c1-2', '[H]c1c(=S)n([H])c2nc(N([H])[H])nc([O-])c2[n+]1[H]', '[H]Oc1nc(N([H])[H])nc2c1nc([H])c(=S)n2[H]', '[H]c1nc2c(=O)nc(N([H])[H])n([H])c2n([H])c1=S', '[H]c1c(=S)nc2nc(N([H])[H])n([H])c([O-])c-2[n+]1[H]', '[H]c1c(=S)nc2n([H])c(N([H])[H])nc([O-])c-2[n+]1[H]', '[H]Oc1c2nc([H])c(=S)nc-2nc(N([H])[H])n1[H]', '[H]c1nc2c([O-])n([H])c(=[N+]([H])[H])n([H])c-2nc1=S', '[H]c1nc2c(=O)n([H])c(N([H])[H])nc2n([H])c1=S']","['[#16]=[#6]1:[#7]:[#6]2:[#7](:[#6](:[#7]:[#6](-[#8]-[H]):[#6]-2:[#7]:[#6]:1-[H])-[#7](-[H])-[H])-[H]', '[#16]-[#6]1:[#7-]:[#6]2:[#7]:[#6](:[#7]:[#6](-[#8]-[H]):[#6]-2:[#7+](:[#6]:1-[H])-[H])=[#7+](-[H])-[H]', '[#16]=[#6]1:[#7](:[#6]2:[#7]:[#6](:[#7]:[#6](-[#8-]):[#6]:2:[#7+](:[#6]:1-[H])-[H])-[#7](-[H])-[H])-[H]', '[#16]=[#6]1:[#7](:[#6]2:[#7]:[#6](:[#7]:[#6](-[#8]-[H]):[#6]:2:[#7]:[#6]:1-[H])-[#7](-[H])-[H])-[H]', '[#16]=[#6]1:[#7](:[#6]2:[#7](:[#6](:[#7]:[#6](=[#8]):[#6]:2:[#7]:[#6]:1-[H])-[#7](-[H])-[H])-[H])-[H]', '[#16]=[#6]1:[#7]:[#6]2:[#7]:[#6](:[#7](:[#6](-[#8-]):[#6]-2:[#7+](:[#6]:1-[H])-[H])-[H])-[#7](-[H])-[H]', '[#16]=[#6]1:[#7]:[#6]2:[#7](:[#6](:[#7]:[#6](-[#8-]):[#6]-2:[#7+](:[#6]:1-[H])-[H])-[#7](-[H])-[H])-[H]', '[#16]=[#6]1:[#7]:[#6]2:[#7]:[#6](:[#7](:[#6](-[#8]-[H]):[#6]-2:[#7]:[#6]:1-[H])-[H])-[#7](-[H])-[H]', '[#16]=[#6]1:[#7]:[#6]2:[#7](:[#6](:[#7](:[#6](-[#8-]):[#6]-2:[#7]:[#6]:1-[H])-[H])=[#7+](-[H])-[H])-[H]', '[#16]=[#6]1:[#7](:[#6]2:[#7]:[#6](:[#7](:[#6](=[#8]):[#6]:2:[#7]:[#6]:1-[H])-[H])-[#7](-[H])-[H])-[H]']","['InChI=1S/C6H5N5OS/c7-6-10-4-3(5(12)11-6)8-1-2(13)9-4/h1H,(H4,7,9,10,11,12,13)', 'InChI=1S/C6H4N5OS/c7-6-10-4-3(5(12)11-6)8-1-2(13)9-4/h1H,(H3-,7,9,10,11,12,13)/q-1/p+1']","['NBTVHQSEDMRUIB-UHFFFAOYSA-N', 'LERDEBQSTXSDAO-UHFFFAOYSA-O']"
2amino7sulfanylidene38dihydropteridin4one_an->2an,9.4,"2-Amino-7-sulfanylidene-3,8-dihydropteridin-4-one",10.1002/hlca.19920750718,"['[H]Oc1nc(N([H])[H])n([H])c2nc(=S)c([H])nc1-2', '[H]Oc1nc(=[N+]([H])[H])nc2[n-]c([S-])c([H])[n+]([H])c1-2', '[H]c1c(=S)n([H])c2nc(N([H])[H])nc([O-])c2[n+]1[H]', '[H]Oc1nc(N([H])[H])nc2c1nc([H])c(=S)n2[H]', '[H]c1nc2c(=O)nc(N([H])[H])n([H])c2n([H])c1=S', '[H]c1c(=S)nc2nc(N([H])[H])n([H])c([O-])c-2[n+]1[H]', '[H]c1c(=S)nc2n([H])c(N([H])[H])nc([O-])c-2[n+]1[H]', '[H]Oc1c2nc([H])c(=S)nc-2nc(N([H])[H])n1[H]', '[H]c1nc2c([O-])n([H])c(=[N+]([H])[H])n([H])c-2nc1=S', '[H]c1nc2c(=O)n([H])c(N([H])[H])nc2n([H])c1=S']","['[#16]=[#6]1:[#7]:[#6]2:[#7](:[#6](:[#7]:[#6](-[#8]-[H]):[#6]-2:[#7]:[#6]:1-[H])-[#7](-[H])-[H])-[H]', '[#16]-[#6]1:[#7-]:[#6]2:[#7]:[#6](:[#7]:[#6](-[#8]-[H]):[#6]-2:[#7+](:[#6]:1-[H])-[H])=[#7+](-[H])-[H]', '[#16]=[#6]1:[#7](:[#6]2:[#7]:[#6](:[#7]:[#6](-[#8-]):[#6]:2:[#7+](:[#6]:1-[H])-[H])-[#7](-[H])-[H])-[H]', '[#16]=[#6]1:[#7](:[#6]2:[#7]:[#6](:[#7]:[#6](-[#8]-[H]):[#6]:2:[#7]:[#6]:1-[H])-[#7](-[H])-[H])-[H]', '[#16]=[#6]1:[#7](:[#6]2:[#7](:[#6](:[#7]:[#6](=[#8]):[#6]:2:[#7]:[#6]:1-[H])-[#7](-[H])-[H])-[H])-[H]', '[#16]=[#6]1:[#7]:[#6]2:[#7]:[#6](:[#7](:[#6](-[#8-]):[#6]-2:[#7+](:[#6]:1-[H])-[H])-[H])-[#7](-[H])-[H]', '[#16]=[#6]1:[#7]:[#6]2:[#7](:[#6](:[#7]:[#6](-[#8-]):[#6]-2:[#7+](:[#6]:1-[H])-[H])-[#7](-[H])-[H])-[H]', '[#16]=[#6]1:[#7]:[#6]2:[#7]:[#6](:[#7](:[#6](-[#8]-[H]):[#6]-2:[#7]:[#6]:1-[H])-[H])-[#7](-[H])-[H]', '[#16]=[#6]1:[#7]:[#6]2:[#7](:[#6](:[#7](:[#6](-[#8-]):[#6]-2:[#7]:[#6]:1-[H])-[H])=[#7+](-[H])-[H])-[H]', '[#16]=[#6]1:[#7](:[#6]2:[#7]:[#6](:[#7](:[#6](=[#8]):[#6]:2:[#7]:[#6]:1-[H])-[H])-[#7](-[H])-[H])-[H]']","['InChI=1S/C6H5N5OS/c7-6-10-4-3(5(12)11-6)8-1-2(13)9-4/h1H,(H4,7,9,10,11,12,13)', 'InChI=1S/C6H4N5OS/c7-6-10-4-3(5(12)11-6)8-1-2(13)9-4/h1H,(H3-,7,9,10,11,12,13)/q-1/p+1']","['NBTVHQSEDMRUIB-UHFFFAOYSA-N', 'LERDEBQSTXSDAO-UHFFFAOYSA-O']"
isoxanthopterin_cation->neut,-0.5,iso-xanthopterin,10.1002/hlca.19920750718,"['[H]Oc1nc2nc(N([H])[H])nc(O[H])c2nc1[H]', '[H]Oc1nc2nc(N([H])[H])nc([O-])c2[n+]([H])c1[H]', '[H]c1c([O-])n([H])c2nc(N([H])[H])nc(=O)c-2[n+]1[H]', '[H]Oc1nc(N([H])[H])n([H])c2nc(=O)c([H])nc1-2', '[H]Oc1c2nc([H])c(=O)nc-2nc(N([H])[H])n1[H]', '[H]Oc1nc2c(nc1[H])c(=O)nc(N([H])[H])n2[H]', '[H]Oc1nc(N([H])[H])nc2c1nc([H])c(=O)n2[H]', '[H]Oc1c([H])nc2c(=O)nc(N([H])[H])nc-2n1[H]', '[H]c1nc2c(=O)n([H])c(=[N+]([H])[H])n([H])c2nc1[O-]', '[H]c1nc2c(=O)nc(N([H])[H])n([H])c2n([H])c1=O', '[H]c1c([O-])nc2nc(N([H])[H])n([H])c(=O)c2[n+]1[H]', '[H]Oc1nc2nc(N([H])[H])n([H])c(=O)c2nc1[H]', '[H]c1nc2c(=O)n([H])c(N([H])[H])nc2n([H])c1=O', '[H]Oc1nc(N([H])[H])nc2nc([O-])c([H])[n+]([H])c12']","['[#8](-[#6]1:[#7]:[#6](:[#7]:[#6]2:[#7]:[#6](-[#8]-[H]):[#6](:[#7]:[#6]:2:1)-[H])-[#7](-[H])-[H])-[H]', '[#8]-[#6]1:[#7]:[#6](:[#7]:[#6]2:[#7]:[#6](-[#8]-[H]):[#6](:[#7+](:[#6]:2:1)-[H])-[H])-[#7](-[H])-[H]', '[#8]=[#6]1:[#7]:[#6](:[#7]:[#6]2:[#7](:[#6](-[#8-]):[#6](:[#7+](:[#6]:1-2)-[H])-[H])-[H])-[#7](-[H])-[H]', '[#8](-[#6]1:[#7]:[#6](:[#7](:[#6]2:[#7]:[#6](=[#8]):[#6](:[#7]:[#6]:1-2)-[H])-[H])-[#7](-[H])-[H])-[H]', '[#8](-[#6]1:[#7](:[#6](:[#7]:[#6]2:[#7]:[#6](=[#8]):[#6](:[#7]:[#6]:1-2)-[H])-[#7](-[H])-[H])-[H])-[H]', '[#8]=[#6]1:[#7]:[#6](:[#7](:[#6]2:[#7]:[#6](-[#8]-[H]):[#6](:[#7]:[#6]:2:1)-[H])-[H])-[#7](-[H])-[H]', '[#8](-[#6]1:[#7]:[#6](:[#7]:[#6]2:[#7](:[#6](=[#8]):[#6](:[#7]:[#6]:2:1)-[H])-[H])-[#7](-[H])-[H])-[H]', '[#8]=[#6]1:[#7]:[#6](:[#7]:[#6]2:[#7](:[#6](-[#8]-[H]):[#6](:[#7]:[#6]:1-2)-[H])-[H])-[#7](-[H])-[H]', '[#8]=[#6]1:[#7](:[#6](:[#7](:[#6]2:[#7]:[#6](-[#8-]):[#6](:[#7]:[#6]:2:1)-[H])-[H])=[#7+](-[H])-[H])-[H]', '[#8]=[#6]1:[#7]:[#6](:[#7](:[#6]2:[#7](:[#6](=[#8]):[#6](:[#7]:[#6]:2:1)-[H])-[H])-[H])-[#7](-[H])-[H]', '[#8]=[#6]1:[#7](:[#6](:[#7]:[#6]2:[#7]:[#6](-[#8-]):[#6](:[#7+](:[#6]:2:1)-[H])-[H])-[#7](-[H])-[H])-[H]', '[#8]=[#6]1:[#7](:[#6](:[#7]:[#6]2:[#7]:[#6](-[#8]-[H]):[#6](:[#7]:[#6]:2:1)-[H])-[#7](-[H])-[H])-[H]', '[#8]=[#6]1:[#7](:[#6](:[#7]:[#6]2:[#7](:[#6](=[#8]):[#6](:[#7]:[#6]:2:1)-[H])-[H])-[#7](-[H])-[H])-[H]', '[#8](-[#6]1:[#7]:[#6](:[#7]:[#6]2:[#7]:[#6](-[#8-]):[#6](:[#7+](:[#6]:2:1)-[H])-[H])-[#7](-[H])-[H])-[H]']","['InChI=1S/C6H5N5O2/c7-6-10-4-3(5(13)11-6)8-1-2(12)9-4/h1H,(H4,7,9,10,11,12,13)']",['GLKCOBIIZKYKFN-UHFFFAOYSA-N']
isoxanthopterin_neut->an,7.34,iso-xanthopterin,10.1002/hlca.19920750718,"['[H]Oc1nc2nc(N([H])[H])nc(O[H])c2nc1[H]', '[H]Oc1nc2nc(N([H])[H])nc([O-])c2[n+]([H])c1[H]', '[H]c1c([O-])n([H])c2nc(N([H])[H])nc(=O)c-2[n+]1[H]', '[H]Oc1nc(N([H])[H])n([H])c2nc(=O)c([H])nc1-2', '[H]Oc1c2nc([H])c(=O)nc-2nc(N([H])[H])n1[H]', '[H]Oc1nc2c(nc1[H])c(=O)nc(N([H])[H])n2[H]', '[H]Oc1nc(N([H])[H])nc2c1nc([H])c(=O)n2[H]', '[H]Oc1c([H])nc2c(=O)nc(N([H])[H])nc-2n1[H]', '[H]c1nc2c(=O)n([H])c(=[N+]([H])[H])n([H])c2nc1[O-]', '[H]c1nc2c(=O)nc(N([H])[H])n([H])c2n([H])c1=O', '[H]c1c([O-])nc2nc(N([H])[H])n([H])c(=O)c2[n+]1[H]', '[H]Oc1nc2nc(N([H])[H])n([H])c(=O)c2nc1[H]', '[H]c1nc2c(=O)n([H])c(N([H])[H])nc2n([H])c1=O', '[H]Oc1nc(N([H])[H])nc2nc([O-])c([H])[n+]([H])c12']","['[#8](-[#6]1:[#7]:[#6](:[#7]:[#6]2:[#7]:[#6](-[#8]-[H]):[#6](:[#7]:[#6]:2:1)-[H])-[#7](-[H])-[H])-[H]', '[#8]-[#6]1:[#7]:[#6](:[#7]:[#6]2:[#7]:[#6](-[#8]-[H]):[#6](:[#7+](:[#6]:2:1)-[H])-[H])-[#7](-[H])-[H]', '[#8]=[#6]1:[#7]:[#6](:[#7]:[#6]2:[#7](:[#6](-[#8-]):[#6](:[#7+](:[#6]:1-2)-[H])-[H])-[H])-[#7](-[H])-[H]', '[#8](-[#6]1:[#7]:[#6](:[#7](:[#6]2:[#7]:[#6](=[#8]):[#6](:[#7]:[#6]:1-2)-[H])-[H])-[#7](-[H])-[H])-[H]', '[#8](-[#6]1:[#7](:[#6](:[#7]:[#6]2:[#7]:[#6](=[#8]):[#6](:[#7]:[#6]:1-2)-[H])-[#7](-[H])-[H])-[H])-[H]', '[#8]=[#6]1:[#7]:[#6](:[#7](:[#6]2:[#7]:[#6](-[#8]-[H]):[#6](:[#7]:[#6]:2:1)-[H])-[H])-[#7](-[H])-[H]', '[#8](-[#6]1:[#7]:[#6](:[#7]:[#6]2:[#7](:[#6](=[#8]):[#6](:[#7]:[#6]:2:1)-[H])-[H])-[#7](-[H])-[H])-[H]', '[#8]=[#6]1:[#7]:[#6](:[#7]:[#6]2:[#7](:[#6](-[#8]-[H]):[#6](:[#7]:[#6]:1-2)-[H])-[H])-[#7](-[H])-[H]', '[#8]=[#6]1:[#7](:[#6](:[#7](:[#6]2:[#7]:[#6](-[#8-]):[#6](:[#7]:[#6]:2:1)-[H])-[H])=[#7+](-[H])-[H])-[H]', '[#8]=[#6]1:[#7]:[#6](:[#7](:[#6]2:[#7](:[#6](=[#8]):[#6](:[#7]:[#6]:2:1)-[H])-[H])-[H])-[#7](-[H])-[H]', '[#8]=[#6]1:[#7](:[#6](:[#7]:[#6]2:[#7]:[#6](-[#8-]):[#6](:[#7+](:[#6]:2:1)-[H])-[H])-[#7](-[H])-[H])-[H]', '[#8]=[#6]1:[#7](:[#6](:[#7]:[#6]2:[#7]:[#6](-[#8]-[H]):[#6](:[#7]:[#6]:2:1)-[H])-[#7](-[H])-[H])-[H]', '[#8]=[#6]1:[#7](:[#6](:[#7]:[#6]2:[#7](:[#6](=[#8]):[#6](:[#7]:[#6]:2:1)-[H])-[H])-[#7](-[H])-[H])-[H]', '[#8](-[#6]1:[#7]:[#6](:[#7]:[#6]2:[#7]:[#6](-[#8-]):[#6](:[#7+](:[#6]:2:1)-[H])-[H])-[#7](-[H])-[H])-[H]']","['InChI=1S/C6H5N5O2/c7-6-10-4-3(5(13)11-6)8-1-2(12)9-4/h1H,(H4,7,9,10,11,12,13)']",['GLKCOBIIZKYKFN-UHFFFAOYSA-N']
isoxanthopterin_an->2an,10.06,iso-xanthopterin,10.1002/hlca.19920750718,"['[H]Oc1nc2nc(N([H])[H])nc(O[H])c2nc1[H]', '[H]Oc1nc2nc(N([H])[H])nc([O-])c2[n+]([H])c1[H]', '[H]c1c([O-])n([H])c2nc(N([H])[H])nc(=O)c-2[n+]1[H]', '[H]Oc1nc(N([H])[H])n([H])c2nc(=O)c([H])nc1-2', '[H]Oc1c2nc([H])c(=O)nc-2nc(N([H])[H])n1[H]', '[H]Oc1nc2c(nc1[H])c(=O)nc(N([H])[H])n2[H]', '[H]Oc1nc(N([H])[H])nc2c1nc([H])c(=O)n2[H]', '[H]Oc1c([H])nc2c(=O)nc(N([H])[H])nc-2n1[H]', '[H]c1nc2c(=O)n([H])c(=[N+]([H])[H])n([H])c2nc1[O-]', '[H]c1nc2c(=O)nc(N([H])[H])n([H])c2n([H])c1=O', '[H]c1c([O-])nc2nc(N([H])[H])n([H])c(=O)c2[n+]1[H]', '[H]Oc1nc2nc(N([H])[H])n([H])c(=O)c2nc1[H]', '[H]c1nc2c(=O)n([H])c(N([H])[H])nc2n([H])c1=O', '[H]Oc1nc(N([H])[H])nc2nc([O-])c([H])[n+]([H])c12']","['[#8](-[#6]1:[#7]:[#6](:[#7]:[#6]2:[#7]:[#6](-[#8]-[H]):[#6](:[#7]:[#6]:2:1)-[H])-[#7](-[H])-[H])-[H]', '[#8]-[#6]1:[#7]:[#6](:[#7]:[#6]2:[#7]:[#6](-[#8]-[H]):[#6](:[#7+](:[#6]:2:1)-[H])-[H])-[#7](-[H])-[H]', '[#8]=[#6]1:[#7]:[#6](:[#7]:[#6]2:[#7](:[#6](-[#8-]):[#6](:[#7+](:[#6]:1-2)-[H])-[H])-[H])-[#7](-[H])-[H]', '[#8](-[#6]1:[#7]:[#6](:[#7](:[#6]2:[#7]:[#6](=[#8]):[#6](:[#7]:[#6]:1-2)-[H])-[H])-[#7](-[H])-[H])-[H]', '[#8](-[#6]1:[#7](:[#6](:[#7]:[#6]2:[#7]:[#6](=[#8]):[#6](:[#7]:[#6]:1-2)-[H])-[#7](-[H])-[H])-[H])-[H]', '[#8]=[#6]1:[#7]:[#6](:[#7](:[#6]2:[#7]:[#6](-[#8]-[H]):[#6](:[#7]:[#6]:2:1)-[H])-[H])-[#7](-[H])-[H]', '[#8](-[#6]1:[#7]:[#6](:[#7]:[#6]2:[#7](:[#6](=[#8]):[#6](:[#7]:[#6]:2:1)-[H])-[H])-[#7](-[H])-[H])-[H]', '[#8]=[#6]1:[#7]:[#6](:[#7]:[#6]2:[#7](:[#6](-[#8]-[H]):[#6](:[#7]:[#6]:1-2)-[H])-[H])-[#7](-[H])-[H]', '[#8]=[#6]1:[#7](:[#6](:[#7](:[#6]2:[#7]:[#6](-[#8-]):[#6](:[#7]:[#6]:2:1)-[H])-[H])=[#7+](-[H])-[H])-[H]', '[#8]=[#6]1:[#7]:[#6](:[#7](:[#6]2:[#7](:[#6](=[#8]):[#6](:[#7]:[#6]:2:1)-[H])-[H])-[H])-[#7](-[H])-[H]', '[#8]=[#6]1:[#7](:[#6](:[#7]:[#6]2:[#7]:[#6](-[#8-]):[#6](:[#7+](:[#6]:2:1)-[H])-[H])-[#7](-[H])-[H])-[H]', '[#8]=[#6]1:[#7](:[#6](:[#7]:[#6]2:[#7]:[#6](-[#8]-[H]):[#6](:[#7]:[#6]:2:1)-[H])-[#7](-[H])-[H])-[H]', '[#8]=[#6]1:[#7](:[#6](:[#7]:[#6]2:[#7](:[#6](=[#8]):[#6](:[#7]:[#6]:2:1)-[H])-[H])-[#7](-[H])-[H])-[H]', '[#8](-[#6]1:[#7]:[#6](:[#7]:[#6]2:[#7]:[#6](-[#8-]):[#6](:[#7+](:[#6]:2:1)-[H])-[H])-[#7](-[H])-[H])-[H]']","['InChI=1S/C6H5N5O2/c7-6-10-4-3(5(13)11-6)8-1-2(12)9-4/h1H,(H4,7,9,10,11,12,13)']",['GLKCOBIIZKYKFN-UHFFFAOYSA-N']
2amino5nitropyrimidine_cation->neut,0.35,2-amino-5-nitropyrimidine,10.1002/9780470186756,['[H]c1nc(N([H])[H])nc([H])c1[N+](=O)[O-]'],['[#8]=[#7+](-[#8-])-[#6]1:[#6](:[#7]:[#6](:[#7]:[#6]:1-[H])-[#7](-[H])-[H])-[H]'],"['InChI=1S/C4H4N4O2/c5-4-6-1-3(2-7-4)8(9)10/h1-2H,(H2,5,6,7)']",['SSHFCFRJYJIJDV-UHFFFAOYSA-N']
cubane14dicarboxylic_neut->an,3.63,"cubane-1,4-dicarboxylic acid",10.1021/acs.joc.2c02872,['[H]OC(=O)[C@]12[C@]3([H])[C@]4([H])[C@@]1([H])[C@]1([H])[C@@]2([H])[C@@]3([H])[C@@]14C(=O)O[H]'],['[H]-[#6@]12-[#6@@]3(-[#6@@]4(-[#6@]-1(-[#6@@]1(-[#6@]-2(-[#6@]-3(-[#6@]-4-1-[H])-[H])-[#6](=[#8])-[#8]-[H])-[H])-[H])-[#6](=[#8])-[#8]-[H])-[H]'],"['InChI=1S/C10H8O4/c11-7(12)9-1-2-4(9)6-5(9)3(1)10(2,6)8(13)14/h1-6H,(H,11,12)(H,13,14)/t1-,2-,3+,4+,5-,6-,9-,10-']",['JFKXMJUMOJJTCQ-YQTXDAMHSA-N']
cubane14dicarboxylic_an->2an,4.76,"cubane-1,4-dicarboxylic acid",10.1021/acs.joc.2c02872,['[H]OC(=O)[C@]12[C@]3([H])[C@]4([H])[C@@]1([H])[C@]1([H])[C@@]2([H])[C@@]3([H])[C@@]14C(=O)O[H]'],['[H]-[#6@]12-[#6@@]3(-[#6@@]4(-[#6@]-1(-[#6@@]1(-[#6@]-2(-[#6@]-3(-[#6@]-4-1-[H])-[H])-[#6](=[#8])-[#8]-[H])-[H])-[H])-[#6](=[#8])-[#8]-[H])-[H]'],"['InChI=1S/C10H8O4/c11-7(12)9-1-2-4(9)6-5(9)3(1)10(2,6)8(13)14/h1-6H,(H,11,12)(H,13,14)/t1-,2-,3+,4+,5-,6-,9-,10-']",['JFKXMJUMOJJTCQ-YQTXDAMHSA-N']
cubane2chloro14dicarboxylic_neut->an,3.17,"cubane-2-chloro-1,4-dicarboxylic acid",10.1021/acs.joc.2c02872,['[H]OC(=O)[C@@]12[C@@]3([H])[C@@]4([H])[C@]1([H])[C@@]1(Cl)[C@]2([H])[C@]3([H])[C@@]41C(=O)O[H]'],['[H]-[#6@]12-[#6@@]3(-[#6@@]4(-[#6@]-1(-[#6@@]1(-[#6@]-2(-[#6@]-3(-[#6@]-4-1-[H])-[#17])-[#6](=[#8])-[#8]-[H])-[H])-[H])-[#6](=[#8])-[#8]-[H])-[H]'],"['InChI=1S/C10H7ClO4/c11-10-4-2-1-3(9(2,10)7(14)15)5(10)8(1,4)6(12)13/h1-5H,(H,12,13)(H,14,15)/t1-,2-,3+,4-,5+,8-,9+,10+']",['XLFWYCWTYCZOEE-AAFRLCOFSA-N']
cubane2chloro14dicarboxylic_an->2an,4.09,"cubane-2-chloro-1,4-dicarboxylic acid",10.1021/acs.joc.2c02872,['[H]OC(=O)[C@@]12[C@@]3([H])[C@@]4([H])[C@]1([H])[C@@]1(Cl)[C@]2([H])[C@]3([H])[C@@]41C(=O)O[H]'],['[H]-[#6@]12-[#6@@]3(-[#6@@]4(-[#6@]-1(-[#6@@]1(-[#6@]-2(-[#6@]-3(-[#6@]-4-1-[H])-[#17])-[#6](=[#8])-[#8]-[H])-[H])-[H])-[#6](=[#8])-[#8]-[H])-[H]'],"['InChI=1S/C10H7ClO4/c11-10-4-2-1-3(9(2,10)7(14)15)5(10)8(1,4)6(12)13/h1-5H,(H,12,13)(H,14,15)/t1-,2-,3+,4-,5+,8-,9+,10+']",['XLFWYCWTYCZOEE-AAFRLCOFSA-N']
cubane27dichloro14dicarboxylic_neut->an,2.73,"cubane-2,7-dichloro-1,4-dicarboxylic acid",10.1021/acs.joc.2c02872,['[H]OC(=O)[C@@]12[C@@]3([H])[C@@]4([H])[C@]1(Cl)[C@@]1([H])[C@]2([H])[C@]3(Cl)[C@@]41C(=O)O[H]'],['[H]-[#6@]12-[#6@@]3(-[#6@@]4(-[#6@]-1(-[#6@@]1(-[#6@]-2(-[#6@]-3(-[#6@]-4-1-[H])-[#17])-[#6](=[#8])-[#8]-[H])-[H])-[#17])-[#6](=[#8])-[#8]-[H])-[H]'],"['InChI=1S/C10H6Cl2O4/c11-9-1-2-8(9,6(15)16)4-3(9)7(1,5(13)14)10(2,4)12/h1-4H,(H,13,14)(H,15,16)/t1-,2-,3+,4+,7+,8+,9+,10+']",['UGWVNPCVQYBVHE-CBZQDMOISA-N']
cubane27dichloro14dicarboxylic_an->2an,3.68,"cubane-2,7-dichloro-1,4-dicarboxylic acid",10.1021/acs.joc.2c02872,['[H]OC(=O)[C@@]12[C@@]3([H])[C@@]4([H])[C@]1(Cl)[C@@]1([H])[C@]2([H])[C@]3(Cl)[C@@]41C(=O)O[H]'],['[H]-[#6@]12-[#6@@]3(-[#6@@]4(-[#6@]-1(-[#6@@]1(-[#6@]-2(-[#6@]-3(-[#6@]-4-1-[H])-[#17])-[#6](=[#8])-[#8]-[H])-[H])-[#17])-[#6](=[#8])-[#8]-[H])-[H]'],"['InChI=1S/C10H6Cl2O4/c11-9-1-2-8(9,6(15)16)4-3(9)7(1,5(13)14)10(2,4)12/h1-4H,(H,13,14)(H,15,16)/t1-,2-,3+,4+,7+,8+,9+,10+']",['UGWVNPCVQYBVHE-CBZQDMOISA-N']
cubane23dichloro14dicarboxylic_neut->an,2.7,"cubane-2,3-dichloro-1,4-dicarboxylic acid",10.1021/acs.joc.2c02872,['[H]OC(=O)[C@]12[C@]3([H])[C@]4([H])[C@@]1([H])[C@]1(Cl)[C@@]2(Cl)[C@@]3([H])[C@]41C(=O)O[H]'],['[H]-[#6@]12-[#6@@]3(-[#6@@]4(-[#6@]-1(-[#6@@]1(-[#6@]-2(-[#6@]-3(-[#6@]-4-1-[#17])-[#17])-[#6](=[#8])-[#8]-[H])-[H])-[H])-[#6](=[#8])-[#8]-[H])-[H]'],"['InChI=1S/C10H6Cl2O4/c11-9-3-1-2-4(7(1,9)5(13)14)10(9,12)8(2,3)6(15)16/h1-4H,(H,13,14)(H,15,16)/t1-,2-,3-,4-,7+,8+,9-,10-/m1/s1']",['KTYGMWBDPNMWOV-UKWRAUDGSA-N']
cubane23dichloro14dicarboxylic_an->2an,3.63,"cubane-2,3-dichloro-1,4-dicarboxylic acid",10.1021/acs.joc.2c02872,['[H]OC(=O)[C@]12[C@]3([H])[C@]4([H])[C@@]1([H])[C@]1(Cl)[C@@]2(Cl)[C@@]3([H])[C@]41C(=O)O[H]'],['[H]-[#6@]12-[#6@@]3(-[#6@@]4(-[#6@]-1(-[#6@@]1(-[#6@]-2(-[#6@]-3(-[#6@]-4-1-[#17])-[#17])-[#6](=[#8])-[#8]-[H])-[H])-[H])-[#6](=[#8])-[#8]-[H])-[H]'],"['InChI=1S/C10H6Cl2O4/c11-9-3-1-2-4(7(1,9)5(13)14)10(9,12)8(2,3)6(15)16/h1-4H,(H,13,14)(H,15,16)/t1-,2-,3-,4-,7+,8+,9-,10-/m1/s1']",['KTYGMWBDPNMWOV-UKWRAUDGSA-N']
iodomethylphosphonic_neut->an,1.3,iodomethyl-phosphonic acid,10.1021/ja01118a510,['[H]OP(=O)(O[H])C([H])([H])I'],['[#8](-[#15@](-[#8]-[H])(=[#8])-[#6@@](-[H])(-[H])-[#53])-[H]'],"['InChI=1S/CH4IO3P/c2-1-6(3,4)5/h1H2,(H2,3,4,5)']",['CESOUITVLYKYSK-UHFFFAOYSA-N']
iodomethylphosphonic_an->2an,6.72,iodomethyl-phosphonic acid,10.1021/ja01118a510,['[H]OP(=O)(O[H])C([H])([H])I'],['[#8](-[#15@](-[#8]-[H])(=[#8])-[#6@@](-[H])(-[H])-[#53])-[H]'],"['InChI=1S/CH4IO3P/c2-1-6(3,4)5/h1H2,(H2,3,4,5)']",['CESOUITVLYKYSK-UHFFFAOYSA-N']
hydroxymethylphosphonic_neut->an,1.91,hydroxymethyl-phosphonic acid,10.1021/ja01118a510,['[H]OC([H])([H])P(=O)(O[H])O[H]'],['[#8](-[#15@](-[#8]-[H])(=[#8])-[#6@@](-[H])(-[H])-[#8]-[H])-[H]'],"['InChI=1S/CH5O4P/c2-1-6(3,4)5/h2H,1H2,(H2,3,4,5)']",['GTTBQSNGUYHPNK-UHFFFAOYSA-N']
hydroxymethylphosphonic_an->2an,7.15,hydroxymethyl-phosphonic acid,10.1021/ja01118a510,['[H]OC([H])([H])P(=O)(O[H])O[H]'],['[#8](-[#15@](-[#8]-[H])(=[#8])-[#6@@](-[H])(-[H])-[#8]-[H])-[H]'],"['InChI=1S/CH5O4P/c2-1-6(3,4)5/h2H,1H2,(H2,3,4,5)']",['GTTBQSNGUYHPNK-UHFFFAOYSA-N']
4cyanophenylphosphonic_neut->an,1.27,4-cyanophenyl-phosphonic acid,10.1021/jp9067087,['[H]OP(=O)(O[H])c1c([H])c([H])c(C#N)c([H])c1[H]'],['[#8](-[#15@](-[#8]-[H])(=[#8])-[#6]1:[#6](:[#6](:[#6](:[#6](:[#6]:1-[H])-[H])-[#6]#[#7])-[H])-[H])-[H]'],"['InChI=1S/C7H6NO3P/c8-5-6-1-3-7(4-2-6)12(9,10)11/h1-4H,(H2,9,10,11)']",['VRNGJVDKKRAVFE-UHFFFAOYSA-N']
4cyanophenylphosphonic_an->2an,6.79,4-cyanophenyl-phosphonic acid,10.1021/jp9067087,['[H]OP(=O)(O[H])c1c([H])c([H])c(C#N)c([H])c1[H]'],['[#8](-[#15@](-[#8]-[H])(=[#8])-[#6]1:[#6](:[#6](:[#6](:[#6](:[#6]:1-[H])-[H])-[#6]#[#7])-[H])-[H])-[H]'],"['InChI=1S/C7H6NO3P/c8-5-6-1-3-7(4-2-6)12(9,10)11/h1-4H,(H2,9,10,11)']",['VRNGJVDKKRAVFE-UHFFFAOYSA-N']
2fluorophenylphosphonic_neut->an,1.64,2-fluorophenyl-phosphonic acid,10.1021/jp9067087,['[H]OP(=O)(O[H])c1c([H])c([H])c([H])c([H])c1F'],['[#8](-[#15@](-[#8]-[H])(=[#8])-[#6]1:[#6](:[#6](:[#6](:[#6](:[#6]:1-[#9])-[H])-[H])-[H])-[H])-[H]'],"['InChI=1S/C6H6FO3P/c7-5-3-1-2-4-6(5)11(8,9)10/h1-4H,(H2,8,9,10)']",['QPCNQISILSLRMN-UHFFFAOYSA-N']
2fluorophenylphosphonic_an->2an,6.8,2-fluorophenyl-phosphonic acid,10.1021/jp9067087,['[H]OP(=O)(O[H])c1c([H])c([H])c([H])c([H])c1F'],['[#8](-[#15@](-[#8]-[H])(=[#8])-[#6]1:[#6](:[#6](:[#6](:[#6](:[#6]:1-[#9])-[H])-[H])-[H])-[H])-[H]'],"['InChI=1S/C6H6FO3P/c7-5-3-1-2-4-6(5)11(8,9)10/h1-4H,(H2,8,9,10)']",['QPCNQISILSLRMN-UHFFFAOYSA-N']