compn,pKa,correct name,reference,smiles,smarts,inchi,inchiKey
quinuclidine2hydroxy_cation->neut,10.07,quinuclidine-2-hydroxy,doi.org/10.1021/ja01012a030,['[H]O[C@]1([H])N2C([H])([H])C([H])([H])C([H])(C([H])([H])C2([H])[H])C1([H])[H]'],['[#7]12-[#6@@](-[#6@@](-[#6@](-[#6@](-[#6@@]-1(-[H])-[H])(-[H])-[H])(-[#6@](-[#6@]-2(-[H])-[H])(-[H])-[H])-[H])(-[H])-[H])(-[H])-[#8]-[H]'],"['InChI=1S/C7H13NO/c9-7-5-6-1-3-8(7)4-2-6/h6-7,9H,1-5H2/t7-/m0/s1']",['FSNYTEYOTCTPSO-ZETCQYMHSA-N']
quinuclidin3one_cation->neut,7.53,quinuclidine-3-one,doi.org/10.1021/ja00463a032,['[H]C1([H])C(=O)C2([H])C([H])([H])C([H])([H])N1C([H])([H])C2([H])[H]'],['[#8]=[#6]1-[#6@@]2(-[#6@](-[#6@@](-[#7](-[#6@](-[#6@@]-2(-[H])-[H])(-[H])-[H])-[#6@]-1(-[H])-[H])(-[H])-[H])(-[H])-[H])-[H]'],"['InChI=1S/C7H11NO/c9-7-5-8-3-1-6(7)2-4-8/h6H,1-5H2']",['ZKMZPXWMMSBLNO-UHFFFAOYSA-N']
4fluoroquinuclidine_cation->neut,8.55,quinuclidine-4-fluoro,doi.org/10.1002/qsar.19830020204,['[H]C1([H])N2C([H])([H])C([H])([H])C(F)(C1([H])[H])C([H])([H])C2([H])[H]'],['[#7]12-[#6@](-[#6@@](-[#6@](-[#6@](-[#6@@]-1(-[H])-[H])(-[H])-[H])(-[#6@](-[#6@]-2(-[H])-[H])(-[H])-[H])-[#9])(-[H])-[H])(-[H])-[H]'],['InChI=1S/C7H12FN/c8-7-1-4-9(5-2-7)6-3-7/h1-6H2'],['LPKWDVRKXCGCPJ-UHFFFAOYSA-N']
4ethynylquinuclidine_cation->neut,9.48,quinuclidine-4-ethynyl,doi.org/10.1002/qsar.19830020204,['[H]C#CC12C([H])([H])C([H])([H])N(C([H])([H])C1([H])[H])C([H])([H])C2([H])[H]'],['[#7]12-[#6@](-[#6@@](-[#6@](-[#6@](-[#6@@]-1(-[H])-[H])(-[H])-[H])(-[#6@](-[#6@]-2(-[H])-[H])(-[H])-[H])-[#6]#[#6]-[H])(-[H])-[H])(-[H])-[H]'],"['InChI=1S/C9H13N/c1-2-9-3-6-10(7-4-9)8-5-9/h1H,3-8H2']",['YNWQRSDBDBXZIQ-UHFFFAOYSA-N']
4ethylquinuclidine_cation->neut,11.09,quinuclidine-4-ethyl,doi.org/10.1002/qsar.19830020204,['[H]C([H])([H])C([H])([H])C12C([H])([H])C([H])([H])N(C([H])([H])C1([H])[H])C([H])([H])C2([H])[H]'],['[#7]12-[#6@](-[#6@@](-[#6@](-[#6@](-[#6@@]-1(-[H])-[H])(-[H])-[H])(-[#6@](-[#6@]-2(-[H])-[H])(-[H])-[H])-[#6@@](-[H])(-[H])-[#6@@](-[H])(-[H])-[H])(-[H])-[H])(-[H])-[H]'],"['InChI=1S/C9H17N/c1-2-9-3-6-10(7-4-9)8-5-9/h2-8H2,1H3']",['ZLPCABMSTVWUGB-UHFFFAOYSA-N']
4ethenylquinuclidine_cation->neut,10.56,quinuclidine-4-ethenyl,doi.org/10.1002/qsar.19830020204,['[H]C([H])=C([H])C12C([H])([H])C([H])([H])N(C([H])([H])C1([H])[H])C([H])([H])C2([H])[H]'],['[#7]12-[#6@](-[#6@@](-[#6@](-[#6@](-[#6@@]-1(-[H])-[H])(-[H])-[H])(-[#6@](-[#6@]-2(-[H])-[H])(-[H])-[H])-[#6](=[#6](-[H])-[H])-[H])(-[H])-[H])(-[H])-[H]'],"['InChI=1S/C9H15N/c1-2-9-3-6-10(7-4-9)8-5-9/h2H,1,3-8H2']",['CZBKLGBIRBXUCK-UHFFFAOYSA-N']
quinuclidine4methylamino_2cation->cation,6.91,quinuclidine-4-methylamine,doi.org/10.1002/hlca.19760590132,['[H]N(C([H])([H])[H])C12C([H])([H])C([H])([H])N(C([H])([H])C1([H])[H])C([H])([H])C2([H])[H]'],['[#7]12-[#6@](-[#6@@](-[#6@](-[#6@](-[#6@@]-1(-[H])-[H])(-[H])-[H])(-[#6@](-[#6@]-2(-[H])-[H])(-[H])-[H])-[#7](-[H])-[#6@@](-[H])(-[H])-[H])(-[H])-[H])(-[H])-[H]'],"['InChI=1S/C8H16N2/c1-9-8-2-5-10(6-3-8)7-4-8/h9H,2-7H2,1H3']",['UYTCLFIOVDWRLD-UHFFFAOYSA-N']
quinuclidine4methylamino_cation->neut,10.32,quinuclidine-4-methylamine,doi.org/10.1002/qsar.19830020204,['[H]N(C([H])([H])[H])C12C([H])([H])C([H])([H])N(C([H])([H])C1([H])[H])C([H])([H])C2([H])[H]'],['[#7]12-[#6@](-[#6@@](-[#6@](-[#6@](-[#6@@]-1(-[H])-[H])(-[H])-[H])(-[#6@](-[#6@]-2(-[H])-[H])(-[H])-[H])-[#7](-[H])-[#6@@](-[H])(-[H])-[H])(-[H])-[H])(-[H])-[H]'],"['InChI=1S/C8H16N2/c1-9-8-2-5-10(6-3-8)7-4-8/h9H,2-7H2,1H3']",['UYTCLFIOVDWRLD-UHFFFAOYSA-N']
quinuclidine2methoxy_cation->neut,8.87,quinuclidine-2-methoxy,doi.org/10.1002/hlca.19850680408,['[H]C([H])([H])O[C@]1([H])N2C([H])([H])C([H])([H])C([H])(C([H])([H])C2([H])[H])C1([H])[H]'],['[#7]12-[#6@](-[#6@@](-[#6@](-[#6@](-[#6@]-1(-[H])-[#8]-[#6@@](-[H])(-[H])-[H])(-[H])-[H])(-[#6@](-[#6@]-2(-[H])-[H])(-[H])-[H])-[H])(-[H])-[H])(-[H])-[H]'],"['InChI=1S/C8H15NO/c1-10-8-6-7-2-4-9(8)5-3-7/h7-8H,2-6H2,1H3/t8-/m0/s1']",['HOEDHOOZPFOLKY-QMMMGPOBSA-N']
quinuclidine4methylvinyl_cation->neut,10.52,quinuclidine-4-methylvinyl,doi.org/10.1002/qsar.19830020204,['[H]C([H])=C(C([H])([H])[H])C12C([H])([H])C([H])([H])N(C([H])([H])C1([H])[H])C([H])([H])C2([H])[H]'],['[#7]12-[#6@](-[#6@@](-[#6@](-[#6@](-[#6@@]-1(-[H])-[H])(-[H])-[H])(-[#6@](-[#6@]-2(-[H])-[H])(-[H])-[H])-[#6](=[#6](-[H])-[H])-[#6@@](-[H])(-[H])-[H])(-[H])-[H])(-[H])-[H]'],"['InChI=1S/C10H17N/c1-9(2)10-3-6-11(7-4-10)8-5-10/h1,3-8H2,2H3']",['GRSOTSKVUSEQPO-UHFFFAOYSA-N']
quinuclidine4isopropyl_cation->neut,11.2,quinuclidine-4-isopropyl,doi.org/10.1002/qsar.19830020204,['[H]C([H])([H])C([H])(C([H])([H])[H])C12C([H])([H])C([H])([H])N(C([H])([H])C1([H])[H])C([H])([H])C2([H])[H]'],['[#7]12-[#6@](-[#6@@](-[#6@](-[#6@](-[#6@@]-1(-[H])-[H])(-[H])-[H])(-[#6@](-[#6@]-2(-[H])-[H])(-[H])-[H])-[#6@@](-[H])(-[#6@@](-[H])(-[H])-[H])-[#6@@](-[H])(-[H])-[H])(-[H])-[H])(-[H])-[H]'],"['InChI=1S/C10H19N/c1-9(2)10-3-6-11(7-4-10)8-5-10/h9H,3-8H2,1-2H3']",['LWTAOQAZHABQRV-UHFFFAOYSA-N']
quinuclidine4dimethylamino_2cation->cation,6.41,quinuclidine-4-dimethylamino,doi.org/10.1002/hlca.19760590132,['[H]C([H])([H])N(C([H])([H])[H])C12C([H])([H])C([H])([H])N(C([H])([H])C1([H])[H])C([H])([H])C2([H])[H]'],['[#7]12-[#6@](-[#6@@](-[#6@](-[#6@](-[#6@@]-1(-[H])-[H])(-[H])-[H])(-[#6@](-[#6@]-2(-[H])-[H])(-[H])-[H])-[#7](-[#6@@](-[H])(-[H])-[H])-[#6@@](-[H])(-[H])-[H])(-[H])-[H])(-[H])-[H]'],"['InChI=1S/C9H18N2/c1-10(2)9-3-6-11(7-4-9)8-5-9/h3-8H2,1-2H3']",['GTAYPLPQPVBSCV-UHFFFAOYSA-N']
quinuclidine4dimethylamino_cation->neut,10.15,quinuclidine-4-dimethylamino,doi.org/10.1002/qsar.19830020204,['[H]C([H])([H])N(C([H])([H])[H])C12C([H])([H])C([H])([H])N(C([H])([H])C1([H])[H])C([H])([H])C2([H])[H]'],['[#7]12-[#6@](-[#6@@](-[#6@](-[#6@](-[#6@@]-1(-[H])-[H])(-[H])-[H])(-[#6@](-[#6@]-2(-[H])-[H])(-[H])-[H])-[#7](-[#6@@](-[H])(-[H])-[H])-[#6@@](-[H])(-[H])-[H])(-[H])-[H])(-[H])-[H]'],"['InChI=1S/C9H18N2/c1-10(2)9-3-6-11(7-4-9)8-5-9/h3-8H2,1-2H3']",['GTAYPLPQPVBSCV-UHFFFAOYSA-N']
quinuclidine4nitroo_cation->neut,7.64,quinuclidine-4-nitro,doi.org/10.1002/qsar.19830020204,['[H]C1([H])N2C([H])([H])C([H])([H])C([N+](=O)[O-])(C1([H])[H])C([H])([H])C2([H])[H]'],['[#7]12-[#6@](-[#6@@](-[#6@](-[#6@](-[#6@@]-1(-[H])-[H])(-[H])-[H])(-[#6@](-[#6@]-2(-[H])-[H])(-[H])-[H])-[#7+](=[#8])-[#8-])(-[H])-[H])(-[H])-[H]'],['InChI=1S/C7H12N2O2/c10-9(11)7-1-4-8(5-2-7)6-3-7/h1-6H2'],['PIFGZPBLAQZHCC-UHFFFAOYSA-N']
quinuclidine4methylthio_cation->neut,9.46,quinuclidine-4-methylthio,doi.org/10.1002/qsar.19830020204,['[H]C([H])([H])SC12C([H])([H])C([H])([H])N(C([H])([H])C1([H])[H])C([H])([H])C2([H])[H]'],['[#7]12-[#6@](-[#6@@](-[#6@](-[#6@](-[#6@@]-1(-[H])-[H])(-[H])-[H])(-[#6@](-[#6@]-2(-[H])-[H])(-[H])-[H])-[#16]-[#6@@](-[H])(-[H])-[H])(-[H])-[H])(-[H])-[H]'],"['InChI=1S/C8H15NS/c1-10-8-2-5-9(6-3-8)7-4-8/h2-7H2,1H3']",['YMQSMYNEDUHSGV-UHFFFAOYSA-N']
quinuclidine4tertbutyl_cation->neut,11.27,quinuclidine-4-tertbutyl,doi.org/10.1002/qsar.19830020204,['[H]C([H])([H])C(C([H])([H])[H])(C([H])([H])[H])C12C([H])([H])C([H])([H])N(C([H])([H])C1([H])[H])C([H])([H])C2([H])[H]'],['[#7]12-[#6@](-[#6@@](-[#6@](-[#6@](-[#6@@]-1(-[H])-[H])(-[H])-[H])(-[#6@](-[#6@]-2(-[H])-[H])(-[H])-[H])-[#6@](-[#6@@](-[H])(-[H])-[H])(-[#6@@](-[H])(-[H])-[H])-[#6@@](-[H])(-[H])-[H])(-[H])-[H])(-[H])-[H]'],"['InChI=1S/C11H21N/c1-10(2,3)11-4-7-12(8-5-11)9-6-11/h4-9H2,1-3H3']",['XRKRFBOJYJUTLW-UHFFFAOYSA-N']
quinuclidine2chloromethyl_cation->neut,9.68,quinuclidine-2chloromethyl,doi.org/10.1002/hlca.19850680408,['[H]C1([H])N2C([H])([H])C([H])([H])C([H])(C1([H])[H])C([H])([H])[C@@]2([H])C([H])([H])Cl'],['[#7]12-[#6@](-[#6@@](-[#6@](-[#6@](-[#6@@]-1(-[H])-[#6@@](-[H])(-[H])-[#17])(-[H])-[H])(-[#6@](-[#6@]-2(-[H])-[H])(-[H])-[H])-[H])(-[H])-[H])(-[H])-[H]'],"['InChI=1S/C8H14ClN/c9-6-8-5-7-1-3-10(8)4-2-7/h7-8H,1-6H2/t8-/m0/s1']",['PCZSLYJHCISCBX-QMMMGPOBSA-N']
quinuclidine3chloromethyl_cation->neut,10.15,quinuclidine-3chloromethyl,doi.org/10.1002/hlca.19850680408,['[H]C1([H])N2C([H])([H])C([H])([H])C([H])(C1([H])[H])[C@]([H])(C([H])([H])Cl)C2([H])[H]'],['[#7]12-[#6@](-[#6@@](-[#6@](-[#6@](-[#6@@]-1(-[H])-[H])(-[H])-[H])(-[#6@](-[#6@]-2(-[H])-[H])(-[H])-[#6@@](-[H])(-[H])-[#17])-[H])(-[H])-[H])(-[H])-[H]'],"['InChI=1S/C8H14ClN/c9-5-8-6-10-3-1-7(8)2-4-10/h7-8H,1-6H2/t8-/m1/s1']",['KWJQNPSDSCTDIZ-MRVPVSSYSA-N']
quinuclidine4methylsulfonyl_cation->neut,7.89,quinuclidine-4-methylsulfonyl,doi.org/10.1002/qsar.19830020204,['[H]C1([H])N2C([H])([H])C([H])([H])C(S(=O)(=O)C([H])([H])[H])(C1([H])[H])C([H])([H])C2([H])[H]'],['[#7]12-[#6@](-[#6@@](-[#6@](-[#6@](-[#6@@]-1(-[H])-[H])(-[H])-[H])(-[#6@](-[#6@]-2(-[H])-[H])(-[H])-[H])-[#16@@](=[#8])(=[#8])-[#6@@](-[H])(-[H])-[H])(-[H])-[H])(-[H])-[H]'],"['InChI=1S/C8H15NO2S/c1-12(10,11)8-2-5-9(6-3-8)7-4-8/h2-7H2,1H3']",['PMIFZKFFKBDBTN-UHFFFAOYSA-N']
quinuclidine4bromo_cation->neut,8.47,quinuclidine-4-bromo,doi.org/10.1002/qsar.19830020204,['[H]C1([H])N2C([H])([H])C([H])([H])C(Br)(C1([H])[H])C([H])([H])C2([H])[H]'],['[#7]12-[#6@](-[#6@@](-[#6@](-[#6@](-[#6@@]-1(-[H])-[H])(-[H])-[H])(-[#6@](-[#6@]-2(-[H])-[H])(-[H])-[H])-[#35])(-[H])-[H])(-[H])-[H]'],['InChI=1S/C7H12BrN/c8-7-1-4-9(5-2-7)6-3-7/h1-6H2'],['ZUEBXWFONILVTP-UHFFFAOYSA-N']
quinuclidine4phenyl_cation->neut,10.18,quinocyldine-4-phenyl,doi.org/10.1002/qsar.19830020204,['[H]c1c([H])c([H])c(C23C([H])([H])C([H])([H])N(C([H])([H])C2([H])[H])C([H])([H])C3([H])[H])c([H])c1[H]'],['[#7]12-[#6@](-[#6@@](-[#6@](-[#6@](-[#6@@]-1(-[H])-[H])(-[H])-[H])(-[#6@](-[#6@]-2(-[H])-[H])(-[H])-[H])-[#6]1:[#6](:[#6](:[#6](:[#6](:[#6]:1-[H])-[H])-[H])-[H])-[H])(-[H])-[H])(-[H])-[H]'],"['InChI=1S/C13H17N/c1-2-4-12(5-3-1)13-6-9-14(10-7-13)11-8-13/h1-5H,6-11H2']",['CSKNWIPXDBBWRW-UHFFFAOYSA-N']
quinuclidine4carboxylic_cation->neut,3.54,quinuclidine-4-carboxylic acid,doi.org/10.1002/hlca.19760590132,['[H]C1([H])C([H])([H])[N@+]2([H])C([H])([H])C([H])([H])[C@@]1(C(=O)[O-])C([H])([H])C2([H])[H]'],['[H]-[#6@@]1(-[#7@]2(-[#6@](-[#6@@](-[#6@@](-[#6@]-1(-[H])-[H])(-[#6@](-[#6@]-2(-[H])-[H])(-[H])-[H])-[#6](=[#8])-[#8-])(-[H])-[H])(-[H])-[H])-[H])-[H]'],"['InChI=1S/C8H13NO2/c10-7(11)8-1-4-9(5-2-8)6-3-8/h1-6H2,(H,10,11)']",['XXPLDHNFTITERR-UHFFFAOYSA-N']
quinuclidine4carboxylic_neut->an,10.51,quinuclidine-4-carboxylic acid,10.1002/hlca.19800630107,['[H]C1([H])C([H])([H])[N@+]2([H])C([H])([H])C([H])([H])[C@@]1(C(=O)[O-])C([H])([H])C2([H])[H]'],['[H]-[#6@@]1(-[#7@]2(-[#6@](-[#6@@](-[#6@@](-[#6@]-1(-[H])-[H])(-[#6@](-[#6@]-2(-[H])-[H])(-[H])-[H])-[#6](=[#8])-[#8-])(-[H])-[H])(-[H])-[H])-[H])-[H]'],"['InChI=1S/C8H13NO2/c10-7(11)8-1-4-9(5-2-8)6-3-8/h1-6H2,(H,10,11)']",['XXPLDHNFTITERR-UHFFFAOYSA-N']
quinuclidine4carboxylicmethylester_cation->neut,9.42,quinuclidine-4-carboxylic methyl ester,doi.org/10.1002/qsar.19830020204,['[H]C([H])([H])OC(=O)C12C([H])([H])C([H])([H])N(C([H])([H])C1([H])[H])C([H])([H])C2([H])[H]'],['[#7]12-[#6@](-[#6@@](-[#6@](-[#6@](-[#6@@]-1(-[H])-[H])(-[H])-[H])(-[#6@](-[#6@]-2(-[H])-[H])(-[H])-[H])-[#6](=[#8])-[#8]-[#6@@](-[H])(-[H])-[H])(-[H])-[H])(-[H])-[H]'],"['InChI=1S/C9H15NO2/c1-12-8(11)9-2-5-10(6-3-9)7-4-9/h2-7H2,1H3']",['IEVLTLPETASBIA-UHFFFAOYSA-N']
methylnitramine_neut->an,6.52,methylnitramine,doi.org/10.1021/ja02198a014,['[H]N([N+](=O)[O-])C([H])([H])[H]'],['[#8]=[#7+](-[#8-])-[#7](-[#6@](-[H])(-[H])-[H])-[H]'],"['InChI=1S/CH4N2O2/c1-2-3(4)5/h2H,1H3']",['ARCZSDSOONGBRX-UHFFFAOYSA-N']
2aminothiophenol_cation->neut,2.9,2-aminothiophenol,doi.org/10.1135/cccc19711035,"['[H]c1c([H])c([H])[c-]([H])c(=S)c1[N+]([H])([H])[H]', '[H]Sc1c([H])c([H])c([H])c([H])c1N([H])[H]']","['[#6]1(:[#6-](:[#6](:[#6](:[#6](:[#6]:1-[H])-[H])-[#7@@+](-[H])(-[H])-[H])=[#16])-[H])-[H]', '[#6]1(:[#6](:[#6](:[#6](:[#6](:[#6]:1-[H])-[H])-[#7](-[H])-[H])-[#16]-[H])-[H])-[H]']","['InChI=1S/C6H6NS/c7-5-3-1-2-4-6(5)8/h1-4H,7H2/q-1/p+1', 'InChI=1S/C6H7NS/c7-5-3-1-2-4-6(5)8/h1-4,8H,7H2']","['YXHKWXFUXIDSDL-UHFFFAOYSA-O', 'VRVRGVPWCUEOGV-UHFFFAOYSA-N']"
18dipyrrolidinnaphthalene_cation->neut,9.97,"1,1'-(Naphthalene-1,8-diyl)dipyrrolidine",doi.org/10.1039/P29870000613,['[H]c1c([H])c(N2C([H])([H])C([H])([H])C([H])([H])C2([H])[H])c2c(N3C([H])([H])C([H])([H])C([H])([H])C3([H])[H])c([H])c([H])c([H])c2c1[H]'],['[#7]1(-[#6@](-[#6@](-[#6@@](-[#6@@]-1(-[H])-[H])(-[H])-[H])(-[H])-[H])(-[H])-[H])-[#6]1:[#6]2:[#6](-[#7]3-[#6@](-[#6@](-[#6@@](-[#6@@]-3(-[H])-[H])(-[H])-[H])(-[H])-[H])(-[H])-[H]):[#6](:[#6](:[#6](:[#6]:2:[#6](:[#6](:[#6]:1-[H])-[H])-[H])-[H])-[H])-[H]'],"['InChI=1S/C18H22N2/c1-2-12-19(11-1)16-9-5-7-15-8-6-10-17(18(15)16)20-13-3-4-14-20/h5-10H,1-4,11-14H2']",['GEENYBIXSRBKOG-UHFFFAOYSA-N']
1methyl1azoniabicyclo222octane2carboxylic_cation->neut,1.66,1-Methyl-1-azoniabicyclo[2.2.2]octane-2-carboxylic,doi.org/10.1002/hlca.19770600210,['[H]C1([H])C([H])([H])[N@+]2(C([H])([H])[H])C([H])([H])C([H])([H])[C@@]1([H])C([H])([H])[C@@]2([H])C(=O)[O-]'],['[#8]=[#6](-[#8-])-[#6@]1(-[#7@@+]2(-[#6@](-[#6@@](-[#6@](-[#6@]-1(-[H])-[H])(-[#6@](-[#6@@]-2(-[H])-[H])(-[H])-[H])-[H])(-[H])-[H])(-[H])-[H])-[#6@](-[H])(-[H])-[H])-[H]'],"['InChI=1S/C9H15NO2/c1-10-4-2-7(3-5-10)6-8(10)9(11)12/h7-8H,2-6H2,1H3/t7-,8-,10+/m0/s1']",['PLWGTMBHJUNVFT-OYNCUSHFSA-N']
1methyl1azoniabicyclo222octane3carboxylic_cation->neut,3.27,1-Methyl-1-azoniabicyclo[2.2.2]octane-3-carboxylic,doi.org/10.1002/hlca.19770600210,['[H]C1([H])C([H])([H])[N@+]2(C([H])([H])[H])C([H])([H])C([H])([H])[C@@]1([H])[C@@]([H])(C(=O)[O-])C2([H])[H]'],['[#8]=[#6](-[#8-])-[#6@@]1(-[#6@]2(-[#6@](-[#6@@](-[#7@@+](-[#6@]-1(-[H])-[H])(-[#6@](-[#6@@]-2(-[H])-[H])(-[H])-[H])-[#6@@](-[H])(-[H])-[H])(-[H])-[H])(-[H])-[H])-[H])-[H]'],"['InChI=1S/C9H15NO2/c1-10-4-2-7(3-5-10)8(6-10)9(11)12/h7-8H,2-6H2,1H3/t7-,8-,10+/m0/s1']",['LQJDETMIWVYIMT-OYNCUSHFSA-N']
1methyl1azoniabicyclo222octane4carboxylic_cation->neut,3.32,1-Methyl-1-azoniabicyclo[2.2.2]octane-3-carboxylic,doi.org/10.1002/hlca.19770600210,['[H]C1([H])C([H])([H])[N@+]2(C([H])([H])[H])C([H])([H])C([H])([H])[C@@]1(C(=O)[O-])C([H])([H])C2([H])[H]'],['[#8]=[#6](-[#8-])-[#6@@]12-[#6@](-[#6@@](-[#7@@+](-[#6@](-[#6@@]-1(-[H])-[H])(-[H])-[H])(-[#6@](-[#6@@]-2(-[H])-[H])(-[H])-[H])-[#6@](-[H])(-[H])-[H])(-[H])-[H])(-[H])-[H]'],"['InChI=1S/C9H15NO2/c1-10-5-2-9(3-6-10,4-7-10)8(11)12/h2-7H2,1H3/t9-,10-']",['KMHHZTCMXFZSKH-MGCOHNPYSA-N']
1458tetraazaphenanthrene_cation->neut,0.5,"1,4,5,8-TETRAAZAPHENANTHRENE",10.1002/jhet.5570360109,['[H]c1nc2c([H])c([H])c3nc([H])c([H])nc3c2nc1[H]'],['[#7]1:[#6]2:[#6]3:[#7]:[#6](:[#6](:[#7]:[#6]:3:[#6](:[#6](:[#6]:2:[#7]:[#6](:[#6]:1-[H])-[H])-[H])-[H])-[H])-[H]'],['InChI=1S/C10H6N4/c1-2-8-10(14-6-4-12-8)9-7(1)11-3-5-13-9/h1-6H'],['CVSGFMWKZVZOJD-UHFFFAOYSA-N']
quinuclidine4methoxy_cation->neut,9.4,4-methoxy-quinuclidine,10.1002/hlca.19850680408,['[H]C([H])([H])OC12C([H])([H])C([H])([H])N(C([H])([H])C1([H])[H])C([H])([H])C2([H])[H]'],['[#7]12-[#6@](-[#6@@](-[#6@](-[#6@](-[#6@@]-1(-[H])-[H])(-[H])-[H])(-[#6@](-[#6@]-2(-[H])-[H])(-[H])-[H])-[#8]-[#6@@](-[H])(-[H])-[H])(-[H])-[H])(-[H])-[H]'],"['InChI=1S/C8H15NO/c1-10-8-2-5-9(6-3-8)7-4-8/h2-7H2,1H3']",['YAZVALIFWKLNDA-UHFFFAOYSA-N']
quinuclidine3chloro_cation->neut,8.85,3-chloro-quinuclidine,10.1002/hlca.19850680408,['[H]C1([H])N2C([H])([H])C([H])([H])C([H])(C1([H])[H])[C@]([H])(Cl)C2([H])[H]'],['[#7]12-[#6@](-[#6@@](-[#6@](-[#6@](-[#6@@]-1(-[H])-[H])(-[H])-[H])(-[#6@](-[#6@@]-2(-[H])-[H])(-[H])-[#17])-[H])(-[H])-[H])(-[H])-[H]'],"['InChI=1S/C7H12ClN/c8-7-5-9-3-1-6(7)2-4-9/h6-7H,1-5H2/t7-/m1/s1']",['NOLVABYTFMDREN-SSDOTTSWSA-N']
quinuclidine4methyl_cation->neut,11.08,4-methyl-quinuclidine,doi.org/10.1002/hlca.19850680408,['[H]C([H])([H])C12C([H])([H])C([H])([H])N(C([H])([H])C1([H])[H])C([H])([H])C2([H])[H]'],['[#7]12-[#6@](-[#6@@](-[#6@](-[#6@](-[#6@@]-1(-[H])-[H])(-[H])-[H])(-[#6@](-[#6@@]-2(-[H])-[H])(-[H])-[H])-[#6@@](-[H])(-[H])-[H])(-[H])-[H])(-[H])-[H]'],"['InChI=1S/C8H15N/c1-8-2-5-9(6-3-8)7-4-8/h2-7H2,1H3']",['DLHGEIMBTIHQGR-UHFFFAOYSA-N']
benzoquinuclidine_cation->neut,7.79,benzoquinuclidine,doi.org/10.1002/recl.19550740205,['[H]c1c([H])c([H])c2c(c1[H])N1C([H])([H])C([H])([H])C2([H])C([H])([H])C1([H])[H]'],['[#7]12-[#6@](-[#6@@](-[#6@](-[#6@](-[#6@@]-1(-[H])-[H])(-[H])-[H])(-[#6]1:[#6]-2:[#6](:[#6](:[#6](:[#6]:1-[H])-[H])-[H])-[H])-[H])(-[H])-[H])(-[H])-[H]'],"['InChI=1S/C11H13N/c1-2-4-11-10(3-1)9-5-7-12(11)8-6-9/h1-4,9H,5-8H2']",['RNFRFPSSWGWDKI-UHFFFAOYSA-N']
cyclohexan11dicarboxylic_neut->an,3.33,"cyclohexan-1,1-dicarboxylic",https://doi.org/10.1016/0022-1902(72)80587-6,['[H]OC(=O)C1(C(=O)O[H])C([H])([H])C([H])([H])C([H])([H])C([H])([H])C1([H])[H]'],['[H]-[#6@]1(-[#6@@](-[#6@](-[#6@](-[#6@](-[#6@]-1(-[#6](=[#8])-[#8]-[H])-[#6](=[#8])-[#8]-[H])(-[H])-[H])(-[H])-[H])(-[H])-[H])(-[H])-[H])-[H]'],"['InChI=1S/C8H12O4/c9-6(10)8(7(11)12)4-2-1-3-5-8/h1-5H2,(H,9,10)(H,11,12)']",['QYQADNCHXSEGJT-UHFFFAOYSA-N']
cyclohexan11dicarboxylic_an->2an,5.73,"cyclohexan-1,1-dicarboxylic",https://doi.org/10.1016/0022-1902(72)80587-6,['[H]OC(=O)C1(C(=O)O[H])C([H])([H])C([H])([H])C([H])([H])C([H])([H])C1([H])[H]'],['[H]-[#6@]1(-[#6@@](-[#6@](-[#6@](-[#6@](-[#6@]-1(-[#6](=[#8])-[#8]-[H])-[#6](=[#8])-[#8]-[H])(-[H])-[H])(-[H])-[H])(-[H])-[H])(-[H])-[H])-[H]'],"['InChI=1S/C8H12O4/c9-6(10)8(7(11)12)4-2-1-3-5-8/h1-5H2,(H,9,10)(H,11,12)']",['QYQADNCHXSEGJT-UHFFFAOYSA-N']
2methylthiazoline_cation->neut,5.22,2-methyl-thiazoline,doi/pdf/10.1021/ja01528a018,['[H]C([H])([H])C1=NC([H])([H])C([H])([H])S1'],['[#16]1-[#6@](-[#6@@](-[#7]=[#6]-1-[#6@@](-[H])(-[H])-[H])(-[H])-[H])(-[H])-[H]'],"['InChI=1S/C4H7NS/c1-4-5-2-3-6-4/h2-3H2,1H3']",['JUIQOABNSLTJSW-UHFFFAOYSA-N']
thiazole_cation->neut,2.53,thiazole,doi.org/10.1039/JR9480002240,['[H]c1nc([H])c([H])s1'],['[#16]1:[#6](:[#6](:[#7]:[#6]:1-[H])-[H])-[H]'],['InChI=1S/C3H3NS/c1-2-5-3-4-1/h1-3H'],['FZWLAAWBMGSTSO-UHFFFAOYSA-N']
11bistrifluoromethylethanol_neut->an,9.55,"1,1-bis(trlfuloromethyl)-ethanol",doi/pdf/10.1021/ja00389a027,['[H]OC(C([H])([H])[H])(C(F)(F)F)C(F)(F)F'],['[#8](-[#6@](-[#6@](-[#9])(-[#9])-[#9])(-[#6@@](-[H])(-[H])-[H])-[#6@@](-[#9])(-[#9])-[#9])-[H]'],"['InChI=1S/C4H4F6O/c1-2(11,3(5,6)7)4(8,9)10/h11H,1H3']",['FQDXJYBXPOMIBX-UHFFFAOYSA-N']
perfluorotertbutanol_neut->an,5.1,perfluorotertbutanol,doi/pdf/10.1021/ja00389a027,['[H]OC(C(F)(F)F)(C(F)(F)F)C(F)(F)F'],['[#8](-[#6@](-[#6@](-[#9])(-[#9])-[#9])(-[#6@](-[#9])(-[#9])-[#9])-[#6@@](-[#9])(-[#9])-[#9])-[H]'],"['InChI=1S/C4HF9O/c5-2(6,7)1(14,3(8,9)10)4(11,12)13/h14H']",['XZNOAVNRSFURIR-UHFFFAOYSA-N']
46dihydroxypyrimidine_neut->an,5.4,"4,6-dihydroxypyrimidine",https://doi.org/10.1039/JR9560001294,"['[H]Oc1nc([H])n([H])c(=O)c1[H]', '[H]Oc1c([H])c(=O)nc([H])n1[H]', '[H]c1c([O-])n([H])c([H])[n+]([H])c1=O']","['[#8](-[#6]1:[#7]:[#6](:[#7](:[#6](=[#8]):[#6]:1-[H])-[H])-[H])-[H]', '[#8](-[#6]1:[#7](:[#6](:[#7]:[#6](=[#8]):[#6]:1-[H])-[H])-[H])-[H]', '[#8]=[#6]1:[#7+](:[#6](:[#7](:[#6](-[#8-]):[#6]:1-[H])-[H])-[H])-[H]']","['InChI=1S/C4H4N2O2/c7-3-1-4(8)6-2-5-3/h1-2H,(H2,5,6,7,8)']",['DUFGYCAXVIUXIP-UHFFFAOYSA-N']
2nitropropane_neut->an,7.7,2nitropropane,10.2478/s11532-013-0311-7,['[H]C([H])([H])C([H])([N+](=O)[O-])C([H])([H])[H]'],['[H]-[#6@@](-[H])(-[H])-[#6@@](-[H])(-[#6@@](-[H])(-[H])-[H])-[#7+](=[#8])-[#8-]'],"['InChI=1S/C3H7NO2/c1-3(2)4(5)6/h3H,1-2H3']",['FGLBSLMDCBOPQK-UHFFFAOYSA-N']
acetylacetone_neut->an,8.99,acetylaceone,doi.org/10.1351/pac198254122557,"['[H]O/C(=C(/[H])C(=O)C([H])([H])[H])C([H])([H])[H]', '[H]C([H])([H])C(=O)C([H])([H])C(=O)C([H])([H])[H]']","['[#8](/[#6](=[#6](\\[#6](=[#8])-[#6@@](-[H])(-[H])-[H])-[H])-[#6@@](-[H])(-[H])-[H])-[H]', '[#8]=[#6](-[#6@](-[#6](=[#8])-[#6@@](-[H])(-[H])-[H])(-[H])-[H])-[#6@@](-[H])(-[H])-[H]']","['InChI=1S/C5H8O2/c1-4(6)3-5(2)7/h3,6H,1-2H3/b4-3-', 'InChI=1S/C5H8O2/c1-4(6)3-5(2)7/h3H2,1-2H3']","['POILWHVDKZOXJZ-ARJAWSKDSA-N', 'YRKCREAYFQTBPV-UHFFFAOYSA-N']"
malonamide_neut->an,12.5,malonamide,10.2478/s11532-013-0311-7,"['[H]N([H])C(=O)C([H])([H])C(=O)N([H])[H]', '[H]O/C(=C(/[H])C(=O)N([H])[H])N([H])[H]']","['[#8]=[#6](-[#7](-[H])-[H])-[#6@@](-[#6](=[#8])-[#7](-[H])-[H])(-[H])-[H]', '[#8](/[#6](-[#7](-[H])-[H])=[#6](\\[#6](=[#8])-[#7](-[H])-[H])-[H])-[H]']","['InChI=1S/C3H6N2O2/c4-2(6)1-3(5)7/h1H2,(H2,4,6)(H2,5,7)', 'InChI=1S/C3H6N2O2/c4-2(6)1-3(5)7/h1,6H,4H2,(H2,5,7)/b2-1-']","['WRIRWRKPLXCTFD-UHFFFAOYSA-N', 'AOZIOAJNRYLOAH-UPHRSURJSA-N']"