compn,pKa,correct name,reference,smiles,smarts,inchi,inchiKey
naphtohydroquinone_neut->an,9.37,naphthohydroquinone,Lange's handbook of chemistry,['[H]Oc1c([H])c([H])c(O[H])c2c([H])c([H])c([H])c([H])c12'],['[#8](-[#6]1:[#6]2:[#6](:[#6](-[#8]-[H]):[#6](:[#6]:1-[H])-[H]):[#6](:[#6](:[#6](:[#6]:2-[H])-[H])-[H])-[H])-[H]'],"['InChI=1S/C10H8O2/c11-9-5-6-10(12)8-4-2-1-3-7(8)9/h1-6,11-12H']",['PCILLCXFKWDRMK-UHFFFAOYSA-N']
naphtohydroquinone_an->2an,10.93,naphthohydroquinone,Lange's handbook of chemistry,['[H]Oc1c([H])c([H])c(O[H])c2c([H])c([H])c([H])c([H])c12'],['[#8](-[#6]1:[#6]2:[#6](:[#6](-[#8]-[H]):[#6](:[#6]:1-[H])-[H]):[#6](:[#6](:[#6](:[#6]:2-[H])-[H])-[H])-[H])-[H]'],"['InChI=1S/C10H8O2/c11-9-5-6-10(12)8-4-2-1-3-7(8)9/h1-6,11-12H']",['PCILLCXFKWDRMK-UHFFFAOYSA-N']
naphtoquinonemonoxime_neut->an,8.01,naphthochinonoxim,Lange's handbook of chemistry,['[H]O/N=C1\\C([H])=C([H])C(=O)c2c([H])c([H])c([H])c([H])c21'],['[#6]1(:[#6](:[#6]2:[#6](:[#6](:[#6]:1-[H])-[H])-[#6](-[#6](=[#6](/[#6]-2=[#7]\\[#8]-[H])-[H])-[H])=[#8])-[H])-[H]'],"['InChI=1S/C10H7NO2/c12-10-6-5-9(11-13)7-3-1-2-4-8(7)10/h1-6,13H/b11-9+']",['SCXINLTVNVQOLM-PKNBQFBNSA-N']
Nbenzoylpiperazine_cation->neut,7.75,n-benzoylpiperazine,10.1002/jcc.23068,['[H]c1c([H])c([H])c(C(=O)N2C([H])([H])C([H])([H])N([H])C([H])([H])C2([H])[H])c([H])c1[H]'],['[H]-[#6@@]1(-[#6@@](-[H])(-[H])-[#7](-[#6@@](-[#6@](-[H])(-[H])-[#7]-1-[H])(-[H])-[H])-[#6](=[#8])-[#6]1:[#6](:[#6](:[#6](:[#6](:[#6]:1-[H])-[H])-[H])-[H])-[H])-[H]'],"['InChI=1S/C11H14N2O/c14-11(10-4-2-1-3-5-10)13-8-6-12-7-9-13/h1-5,12H,6-9H2']",['VUNXBQRNMNVUMV-UHFFFAOYSA-N']
nicotine_2cation->cation,3.13,nicotine,profiles of drug substances excipiends and related (A),['[H]c1nc([H])c([C@@]2([H])N(C([H])([H])[H])C([H])([H])C([H])([H])C2([H])[H])c([H])c1[H]'],['[#6]1(:[#7]:[#6](:[#6](:[#6](:[#6]:1-[#6@]1(-[#7](-[#6@](-[H])(-[H])-[H])-[#6@@](-[H])(-[H])-[#6@@](-[H])(-[H])-[#6@]-1(-[H])-[H])-[H])-[H])-[H])-[H])-[H]'],"['InChI=1S/C10H14N2/c1-12-7-3-5-10(12)9-4-2-6-11-8-9/h2,4,6,8,10H,3,5,7H2,1H3/t10-/m0/s1']",['SNICXCGAKADSCV-JTQLQIEISA-N']
nicotine_cation->neut,8.11,nicotine,profiles of drug substances excipiends and related (A),['[H]c1nc([H])c([C@@]2([H])N(C([H])([H])[H])C([H])([H])C([H])([H])C2([H])[H])c([H])c1[H]'],['[#6]1(:[#7]:[#6](:[#6](:[#6](:[#6]:1-[#6@]1(-[#7](-[#6@](-[H])(-[H])-[H])-[#6@@](-[H])(-[H])-[#6@@](-[H])(-[H])-[#6@]-1(-[H])-[H])-[H])-[H])-[H])-[H])-[H]'],"['InChI=1S/C10H14N2/c1-12-7-3-5-10(12)9-4-2-6-11-8-9/h2,4,6,8,10H,3,5,7H2,1H3/t10-/m0/s1']",['SNICXCGAKADSCV-JTQLQIEISA-N']
nisopropylaniline_cation->neut,5.5,n-isopropylaniline,Lange's handbook of chemistry,['[H]c1c([H])c([H])c(N([H])C([H])(C([H])([H])[H])C([H])([H])[H])c([H])c1[H]'],['[#6]1(:[#6](:[#6](:[#6](:[#6](:[#6]:1-[H])-[H])-[H])-[H])-[H])-[#7](-[H])-[#6@@](-[H])(-[#6@@](-[H])(-[H])-[H])-[#6@@](-[H])(-[H])-[H]'],"['InChI=1S/C9H13N/c1-8(2)10-9-6-4-3-5-7-9/h3-8,10H,1-2H3']",['FRCFWPVMFJMNDP-UHFFFAOYSA-N']
nitro-benzotriazoleoxime_neut->an,2.75,6-nitrobenzotriazole n-oxide,doi.org/10.1039/P29730000160,['[H]On1nnc2c([H])c([H])c([N+](=O)[O-])c([H])c21'],['[#6]12:[#6](:[#6](:[#6](:[#6](:[#6]:1-[H])-[#7+](=[#8])-[#8-])-[H])-[H]):[#7]:[#7]:[#7]:2-[#8]-[H]'],"['InChI=1S/C6H4N4O3/c11-9-6-3-4(10(12)13)1-2-5(6)7-8-9/h1-3,11H']",['HZPVTKPGROKWRL-UHFFFAOYSA-N']
nitroacetic_neut->an,1.68,nitroacetic acid,Lange's handbook of chemistry,['[H]OC(=O)C([H])([H])[N+](=O)[O-]'],"['[#6](=[#8])(-[#8]-[H])-[#6@](-[H])(-[H])-[#7+](=[#8])-[#8-]', '[#6](=[#8])(-[#8]-[H])-[#6@@](-[H])(-[H])-[#7+](=[#8])-[#8-]']","['InChI=1S/C2H3NO4/c4-2(5)1-3(6)7/h1H2,(H,4,5)']",['RGHXWDVNBYKJQH-UHFFFAOYSA-N']
nitroethane_neut->an,8.57,nitroethane,Lange's handbook of chemistry,['[H]C([H])([H])C([H])([H])[N+](=O)[O-]'],['[H]-[#6@@](-[H])(-[#7+](=[#8])-[#8-])-[#6@@](-[H])(-[H])-[H]'],"['InChI=1S/C2H5NO2/c1-2-3(4)5/h2H2,1H3']",['MCSAJNNLRCFZED-UHFFFAOYSA-N']
nitromesitol_neut->an,8.98,nitromesitol,Lange's handbook of chemistry,['[H]Oc1c(C([H])([H])[H])c([H])c(C([H])([H])[H])c([N+](=O)[O-])c1C([H])([H])[H]'],['[#8](-[#6]1:[#6](:[#6](-[#7+](=[#8])-[#8-]):[#6](:[#6](:[#6]:1-[#6@@](-[H])(-[H])-[H])-[H])-[#6@@](-[H])(-[H])-[H])-[#6@@](-[H])(-[H])-[H])-[H]'],"['InChI=1S/C9H11NO3/c1-5-4-6(2)9(11)7(3)8(5)10(12)13/h4,11H,1-3H3']",['ZVRSQGUIDRECBV-UHFFFAOYSA-N']
nitromethane_neut->an,10.12,nitromethane,Lange's handbook of chemistry,['[H]C([H])([H])[N+](=O)[O-]'],['[H]-[#6@@](-[H])(-[H])-[#7+](=[#8])-[#8-]'],['InChI=1S/CH3NO2/c1-2(3)4/h1H3'],['LYGJENNIWJXYER-UHFFFAOYSA-N']
nitrourea_neut->an,4.15,nitrourea,Lange's handbook of chemistry,['[H]N([H])C(=O)N([H])[N+](=O)[O-]'],['[#8]=[#6](-[#7](-[#7+](=[#8])-[#8-])-[H])-[#7](-[H])-[H]'],"['InChI=1S/CH3N3O3/c2-1(5)3-4(6)7/h(H3,2,3,5)']",['CMUOJBJRZUHRMU-UHFFFAOYSA-N']
nmethylalanine_cation->neut,2.22,n-methylalanine,Lange's handbook of chemistry,['[H]C([H])([H])[C@@]([H])(C(=O)[O-])[N+]([H])([H])C([H])([H])[H]'],['[#8]=[#6](-[#8-])-[#6@@](-[#7@@+](-[#6@@](-[H])(-[H])-[H])(-[H])-[H])(-[#6@@](-[H])(-[H])-[H])-[H]'],"['InChI=1S/C4H9NO2/c1-3(5-2)4(6)7/h3,5H,1-2H3,(H,6,7)/t3-/m0/s1']",['GDFAOVXKHJXLEI-VKHMYHEASA-N']
nmethylalanine_neut->an,10.19,n-methylalanine,Lange's handbook of chemistry,['[H]C([H])([H])[C@@]([H])(C(=O)[O-])[N+]([H])([H])C([H])([H])[H]'],['[#8]=[#6](-[#8-])-[#6@@](-[#7@@+](-[#6@@](-[H])(-[H])-[H])(-[H])-[H])(-[#6@@](-[H])(-[H])-[H])-[H]'],"['InChI=1S/C4H9NO2/c1-3(5-2)4(6)7/h3,5H,1-2H3,(H,6,7)/t3-/m0/s1']",['GDFAOVXKHJXLEI-VKHMYHEASA-N']
Nmethylaniline_cation->neut,4.85,n-methylaniline,Lange's handbook of chemistry,['[H]c1c([H])c([H])c(N([H])C([H])([H])[H])c([H])c1[H]'],['[#6]1(:[#6](:[#6](:[#6](:[#6](:[#6]:1-[H])-[H])-[H])-[#7](-[H])-[#6@@](-[H])(-[H])-[H])-[H])-[H]'],"['InChI=1S/C7H9N/c1-8-7-5-3-2-4-6-7/h2-6,8H,1H3']",['AFBPFSWMIHJQDM-UHFFFAOYSA-N']
Nmethylaziridine_cation->neut,7.86,1-methylaziridine,10.1002/jcc.23068,['[H]C([H])([H])N1C([H])([H])C1([H])[H]'],['[H]-[#6@]1(-[#6@@](-[H])(-[#7]-1-[#6@@](-[H])(-[H])-[H])-[H])-[H]'],"['InChI=1S/C3H7N/c1-4-2-3-4/h2-3H2,1H3']",['XLJQPXVBQNJNLW-UHFFFAOYSA-N']
nmethylbenzpyrazole_cation->neut,0.4,1-methylindazole,10.1002/jcc.23068,['[H]c1c([H])c([H])c2c(c([H])nn2C([H])([H])[H])c1[H]'],['[#6]12:[#6](:[#6](:[#6](:[#6](:[#6]:1-[H])-[H])-[H])-[H]):[#6](-[H]):[#7]:[#7]:2-[#6@@](-[H])(-[H])-[H]'],"['InChI=1S/C8H8N2/c1-10-8-5-3-2-4-7(8)6-9-10/h2-6H,1H3']",['CSUGQXMRKOKBFI-UHFFFAOYSA-N']
nmethylbenzymidazole_cation->neut,5.24,n-methylbenzimidazole,10.1002/jcc.23068,['[H]c1c([H])c([H])c2c(nc([H])n2C([H])([H])[H])c1[H]'],['[#6]1(:[#6](:[#6](:[#6]2:[#6](:[#6]:1-[H]):[#7]:[#6](:[#7]:2-[#6@@](-[H])(-[H])-[H])-[H])-[H])-[H])-[H]'],"['InChI=1S/C8H8N2/c1-10-6-9-7-4-2-3-5-8(7)10/h2-6H,1H3']",['FGYADSCZTQOAFK-UHFFFAOYSA-N']
Nmethylmethoxyamine_cation->neut,4.75,methylmethoxyamine,10.1002/jcc.23068,['[H]N(OC([H])([H])[H])C([H])([H])[H]'],['[#7](-[H])(-[#6@@](-[H])(-[H])-[H])-[#8]-[#6@@](-[H])(-[H])-[H]'],"['InChI=1S/C2H7NO/c1-3-4-2/h3H,1-2H3']",['KRKPYFLIYNGWTE-UHFFFAOYSA-N']
nmethylmorpholine_cation->neut,7.41,n-methylmorpholine,doi/epdf/10.1021/ja01577a030,['[H]C([H])([H])N1C([H])([H])C([H])([H])OC([H])([H])C1([H])[H]'],['[H]-[#6@@]1(-[#6@@](-[H])(-[H])-[#8]-[#6@@](-[#6@](-[H])(-[H])-[#7]-1-[#6@@](-[H])(-[H])-[H])(-[H])-[H])-[H]'],"['InChI=1S/C5H11NO/c1-6-2-4-7-5-3-6/h2-5H2,1H3']",['SJRJJKPEHAURKC-UHFFFAOYSA-N']
nndimethylglycylglycine_cation->neut,3.11,"n,n-dimethylglycylglycine",Lange's handbook of chemistry,['[H]N(C(=O)C([H])([H])[N+]([H])(C([H])([H])[H])C([H])([H])[H])C([H])([H])C(=O)[O-]'],['[#8]=[#6](-[#7](-[#6@](-[#6](=[#8])-[#8-])(-[H])-[H])-[H])-[#6@](-[#7@+](-[#6@](-[H])(-[H])-[H])(-[#6@@](-[H])(-[H])-[H])-[H])(-[H])-[H]'],"['InChI=1S/C6H12N2O3/c1-8(2)4-5(9)7-3-6(10)11/h3-4H2,1-2H3,(H,7,9)(H,10,11)']",['HQFNONZTUQSPJS-UHFFFAOYSA-N']
nndimethylglycylglycine_neut->an,8.09,"n,n-dimethylglycylglycine",Lange's handbook of chemistry,['[H]N(C(=O)C([H])([H])[N+]([H])(C([H])([H])[H])C([H])([H])[H])C([H])([H])C(=O)[O-]'],['[#8]=[#6](-[#7](-[#6@](-[#6](=[#8])-[#8-])(-[H])-[H])-[H])-[#6@](-[#7@+](-[#6@](-[H])(-[H])-[H])(-[#6@@](-[H])(-[H])-[H])-[H])(-[H])-[H]'],"['InChI=1S/C6H12N2O3/c1-8(2)4-5(9)7-3-6(10)11/h3-4H2,1-2H3,(H,7,9)(H,10,11)']",['HQFNONZTUQSPJS-UHFFFAOYSA-N']
nndimethylotoluidine_cation->neut,5.86,"n,n-dimethyl-o-toluidine",doi.org/10.1021/ja01646a001,['[H]c1c([H])c([H])c(C([H])([H])[H])c(N(C([H])([H])[H])C([H])([H])[H])c1[H]'],['[#7](-[#6]1:[#6](:[#6](:[#6](:[#6](:[#6]:1-[H])-[H])-[H])-[H])-[#6@@](-[H])(-[H])-[H])(-[#6@](-[H])(-[H])-[H])-[#6@](-[H])(-[H])-[H]'],"['InChI=1S/C9H13N/c1-8-6-4-5-7-9(8)10(2)3/h4-7H,1-3H3']",['JDEJGVSZUIJWBM-UHFFFAOYSA-N']
nndimethylptoluidine_cation->neut,5.5,nn-dimethyl-p-toluidine,doi.org/10.1021/ja01348a001,['[H]c1c([H])c(C([H])([H])[H])c([H])c([H])c1N(C([H])([H])[H])C([H])([H])[H]'],['[#7](-[#6]1:[#6](:[#6](:[#6](:[#6](:[#6]:1-[H])-[H])-[#6@@](-[H])(-[H])-[H])-[H])-[H])(-[#6@](-[H])(-[H])-[H])-[#6@](-[H])(-[H])-[H]'],"['InChI=1S/C9H13N/c1-8-4-6-9(7-5-8)10(2)3/h4-7H,1-3H3']",['GYVGXEWAOAAJEU-UHFFFAOYSA-N']
nndimethylaniline_cation->neut,5.15,"n,n dimethylaniline",Lange's handbook of chemistry,['[H]c1c([H])c([H])c(N(C([H])([H])[H])C([H])([H])[H])c([H])c1[H]'],['[#7](-[#6]1:[#6](:[#6](:[#6](:[#6](:[#6]:1-[H])-[H])-[H])-[H])-[H])(-[#6@](-[H])(-[H])-[H])-[#6@@](-[H])(-[H])-[H]'],"['InChI=1S/C8H11N/c1-9(2)8-6-4-3-5-7-8/h3-7H,1-2H3']",['JLTDJTHDQAWBAV-UHFFFAOYSA-N']
nndimethylglycine_cation->neut,2.15,"n,n dimethylglycine",Lange's handbook of chemistry,['[H]C([H])([H])[N+]([H])(C([H])([H])[H])C([H])([H])C(=O)[O-]'],['[#8]=[#6](-[#8-])-[#6@@](-[#7@+](-[#6@](-[H])(-[H])-[H])(-[#6@](-[H])(-[H])-[H])-[H])(-[H])-[H]'],"['InChI=1S/C4H9NO2/c1-5(2)3-4(6)7/h3H2,1-2H3,(H,6,7)']",['FFDGPVCHZBVARC-UHFFFAOYSA-N']
nndimethylglycine_neut->an,9.94,"n,n dimethylglycine",Lange's handbook of chemistry,['[H]C([H])([H])[N+]([H])(C([H])([H])[H])C([H])([H])C(=O)[O-]'],['[#8]=[#6](-[#8-])-[#6@@](-[#7@+](-[#6@](-[H])(-[H])-[H])(-[#6@](-[H])(-[H])-[H])-[H])(-[H])-[H]'],"['InChI=1S/C4H9NO2/c1-5(2)3-4(6)7/h3H2,1-2H3,(H,6,7)']",['FFDGPVCHZBVARC-UHFFFAOYSA-N']
noradrenaline_cation->neut,8.64,noradrenaline,http://www.zirchrom.com/organic.htm,['[H]Oc1c([H])c([H])c([C@]([H])(O[H])C([H])([H])N([H])[H])c([H])c1O[H]'],['[#6]1(:[#6](:[#6](:[#6](:[#6](:[#6]:1-[H])-[#6@@](-[H])(-[#6@](-[H])(-[H])-[#7](-[H])-[H])-[#8]-[H])-[H])-[H])-[#8]-[H])-[#8]-[H]'],"['InChI=1S/C8H11NO3/c9-4-8(12)5-1-2-6(10)7(11)3-5/h1-3,8,10-12H,4,9H2/t8-/m1/s1']",['SFLSHLFXELFNJZ-MRVPVSSYSA-N']
noradrenaline_neut->an,9.7,noradrenaline,http://www.zirchrom.com/organic.htm,['[H]Oc1c([H])c([H])c([C@]([H])(O[H])C([H])([H])N([H])[H])c([H])c1O[H]'],['[#6]1(:[#6](:[#6](:[#6](:[#6](:[#6]:1-[H])-[#6@@](-[H])(-[#6@](-[H])(-[H])-[#7](-[H])-[H])-[#8]-[H])-[H])-[H])-[#8]-[H])-[#8]-[H]'],"['InChI=1S/C8H11NO3/c9-4-8(12)5-1-2-6(10)7(11)3-5/h1-3,8,10-12H,4,9H2/t8-/m1/s1']",['SFLSHLFXELFNJZ-MRVPVSSYSA-N']
o-acetylaniline_cation->neut,2.3,o-acetylaniline,10.1002/jcc.23068,['[H]c1c([H])c([H])c(N([H])[H])c(C(=O)C([H])([H])[H])c1[H]'],['[#6]1(:[#6](:[#6](:[#6](:[#6](:[#6]:1-[H])-[H])-[H])-[#7](-[H])-[H])-[#6](=[#8])-[#6@@](-[H])(-[H])-[H])-[H]'],"['InChI=1S/C8H9NO/c1-6(10)7-4-2-3-5-8(7)9/h2-5H,9H2,1H3']",['GTDQGKWDWVUKTI-UHFFFAOYSA-N']
o-chlorophenol_neut->an,8.55,o-chlorophenol,Lange's handbook of chemistry,['[H]Oc1c([H])c([H])c([H])c([H])c1Cl'],['[#6]1(:[#6](:[#6](:[#6](:[#6](:[#6]:1-[H])-[H])-[#17])-[#8]-[H])-[H])-[H]'],"['InChI=1S/C6H5ClO/c7-5-3-1-2-4-6(5)8/h1-4,8H']",['ISPYQTSUDJAMAB-UHFFFAOYSA-N']
o-claniline_cation->neut,2.64,o-chloraniline,10.1002/jcc.23068,['[H]c1c([H])c([H])c(N([H])[H])c(Cl)c1[H]'],['[#6]1(:[#6](:[#6](:[#6](:[#6](:[#6]:1-[H])-[H])-[H])-[#7](-[H])-[H])-[#17])-[H]'],"['InChI=1S/C6H6ClN/c7-5-3-1-2-4-6(5)8/h1-4H,8H2']",['AKCRQHGQIJBRMN-UHFFFAOYSA-N']
o-cresol_neut->an,10.26,o-cresol,Lange's handbook of chemistry,['[H]Oc1c([H])c([H])c([H])c([H])c1C([H])([H])[H]'],['[#6]1(:[#6](:[#6](:[#6](:[#6](:[#6]:1-[H])-[H])-[#8]-[H])-[#6@@](-[H])(-[H])-[H])-[H])-[H]'],"['InChI=1S/C7H8O/c1-6-4-2-3-5-7(6)8/h2-5,8H,1H3']",['QWVGKYWNOKOFNN-UHFFFAOYSA-N']
o-fluorobenzoic_neut->an,3.27,o-fluorobenzoic acid,Lange's handbook of chemistry,['[H]OC(=O)c1c([H])c([H])c([H])c([H])c1F'],['[#9]-[#6]1:[#6](:[#6](:[#6](:[#6](:[#6]:1-[H])-[H])-[H])-[H])-[#6](-[#8]-[H])=[#8]'],"['InChI=1S/C7H5FO2/c8-6-4-2-1-3-5(6)7(9)10/h1-4H,(H,9,10)']",['NSTREUWFTAOOKS-UHFFFAOYSA-N']
o-hydroxyphenol_neut->an,9.4,o-hydroxyphenol,doi.org/10.1002/zaac.19703770111,['[H]Oc1c([H])c([H])c([H])c([H])c1O[H]'],['[#6]1(:[#6](:[#6](:[#6](:[#6](:[#6]:1-[H])-[H])-[#8]-[H])-[#8]-[H])-[H])-[H]'],"['InChI=1S/C6H6O2/c7-5-3-1-2-4-6(5)8/h1-4,7-8H']",['YCIMNLLNPGFGHC-UHFFFAOYSA-N']
o-hydroxyphenol_an->2an,12.4,o-hydroxyphenol,doi.org/10.1002/zaac.19703770111,['[H]Oc1c([H])c([H])c([H])c([H])c1O[H]'],['[#6]1(:[#6](:[#6](:[#6](:[#6](:[#6]:1-[H])-[H])-[#8]-[H])-[#8]-[H])-[H])-[H]'],"['InChI=1S/C6H6O2/c7-5-3-1-2-4-6(5)8/h1-4,7-8H']",['YCIMNLLNPGFGHC-UHFFFAOYSA-N']
o-methoxyphenol_neut->an,9.99,o-methoxyphenol,Lange's handbook of chemistry,['[H]Oc1c([H])c([H])c([H])c([H])c1OC([H])([H])[H]'],['[#6]1(:[#6](:[#6](:[#6](:[#6](:[#6]:1-[H])-[H])-[H])-[#8]-[H])-[#8]-[#6@@](-[H])(-[H])-[H])-[H]'],"['InChI=1S/C7H8O2/c1-9-7-5-3-2-4-6(7)8/h2-5,8H,1H3']",['LHGVFZTZFXWLCP-UHFFFAOYSA-N']
o-methylbenzoic_neut->an,3.9,o-methylbenzoate,Lange's handbook of chemistry,['[H]OC(=O)c1c([H])c([H])c([H])c([H])c1C([H])([H])[H]'],['[#6]1(:[#6](:[#6](:[#6](:[#6](:[#6]:1-[H])-[H])-[H])-[H])-[#6](=[#8])-[#8]-[H])-[#6@@](-[H])(-[H])-[H]'],"['InChI=1S/C8H8O2/c1-6-4-2-3-5-7(6)8(9)10/h2-5H,1H3,(H,9,10)']",['ZWLPBLYKEWSWPD-UHFFFAOYSA-N']
o-methylisourea_cation->neut,9.72,o-methylisourea,"M. Zief and J. T. Edsall. J. Am. Chem. Soc. 59, 2245 (1937).","['[H]/N=C(\\OC([H])([H])[H])N([H])[H]', '[H]/N=C(/OC([H])([H])[H])N([H])[H]']","['[#8](/[#6](-[#7](-[H])-[H])=[#7]\\[H])-[#6@](-[H])(-[H])-[H]', '[#8](/[#6](-[#7](-[H])-[H])=[#7]/[H])-[#6@](-[H])(-[H])-[H]']","['InChI=1S/C2H6N2O/c1-5-2(3)4/h1H3,(H3,3,4)']",['RMAHPRNLQIRHIJ-UHFFFAOYSA-N']
omethylthreonine_cation->neut,2.02,o-methylthreonine,Lange's handbook of chemistry,['[H]C([H])([H])O[C@]([H])(C([H])([H])[H])[C@@]([H])(C(=O)[O-])[N+]([H])([H])[H]'],['[#8](-[#6@@](-[#6@](-[#7@+](-[H])(-[H])-[H])(-[#6](=[#8])-[#8-])-[H])(-[#6@](-[H])(-[H])-[H])-[H])-[#6@](-[H])(-[H])-[H]'],"['InChI=1S/C5H11NO3/c1-3(9-2)4(6)5(7)8/h3-4H,6H2,1-2H3,(H,7,8)/t3-,4+/m1/s1']",['FYCWLJLGIAUCCL-DMTCNVIQSA-N']
omethylthreonine_neut->an,9,o-methylthreonine,Lange's handbook of chemistry,['[H]C([H])([H])O[C@]([H])(C([H])([H])[H])[C@@]([H])(C(=O)[O-])[N+]([H])([H])[H]'],['[#8](-[#6@@](-[#6@](-[#7@+](-[H])(-[H])-[H])(-[#6](=[#8])-[#8-])-[H])(-[#6@](-[H])(-[H])-[H])-[H])-[#6@](-[H])(-[H])-[H]'],"['InChI=1S/C5H11NO3/c1-3(9-2)4(6)5(7)8/h3-4H,6H2,1-2H3,(H,7,8)/t3-,4+/m1/s1']",['FYCWLJLGIAUCCL-DMTCNVIQSA-N']
omethyltyrosine_cation->neut,2.21,o-methyltyrosine,Lange's handbook of chemistry,['[H]c1c([H])c(C([H])([H])[C@@]([H])(C(=O)[O-])[N+]([H])([H])[H])c([H])c([H])c1OC([H])([H])[H]'],['[#8](-[#6]1:[#6](:[#6](:[#6](-[#6@](-[#6@](-[#7@+](-[H])(-[H])-[H])(-[#6](=[#8])-[#8-])-[H])(-[H])-[H]):[#6](:[#6]:1-[H])-[H])-[H])-[H])-[#6@](-[H])(-[H])-[H]'],"['InChI=1S/C10H13NO3/c1-14-8-4-2-7(3-5-8)6-9(11)10(12)13/h2-5,9H,6,11H2,1H3,(H,12,13)/t9-/m0/s1']",['GEYBMYRBIABFTA-VIFPVBQESA-N']
omethyltyrosine_neut->an,9.35,o-methyltyrosine,Lange's handbook of chemistry,['[H]c1c([H])c(C([H])([H])[C@@]([H])(C(=O)[O-])[N+]([H])([H])[H])c([H])c([H])c1OC([H])([H])[H]'],['[#8](-[#6]1:[#6](:[#6](:[#6](-[#6@](-[#6@](-[#7@+](-[H])(-[H])-[H])(-[#6](=[#8])-[#8-])-[H])(-[H])-[H]):[#6](:[#6]:1-[H])-[H])-[H])-[H])-[#6@](-[H])(-[H])-[H]'],"['InChI=1S/C10H13NO3/c1-14-8-4-2-7(3-5-8)6-9(11)10(12)13/h2-5,9H,6,11H2,1H3,(H,12,13)/t9-/m0/s1']",['GEYBMYRBIABFTA-VIFPVBQESA-N']
o-nitroaniline_cation->neut,-0.28,o-nitroaniline,Lange's handbook of chemistry,['[H]c1c([H])c([H])c([N+](=O)[O-])c(N([H])[H])c1[H]'],['[#6]1(:[#6](:[#6](:[#6](:[#6](:[#6]:1-[H])-[H])-[#7+](=[#8])-[#8-])-[#7](-[H])-[H])-[H])-[H]'],"['InChI=1S/C6H6N2O2/c7-5-3-1-2-4-6(5)8(9)10/h1-4H,7H2']",['DPJCXCZTLWNFOH-UHFFFAOYSA-N']
o-nitrophenol_neut->an,7.22,o-nitrophenol,Lange's handbook of chemistry,['[H]Oc1c([H])c([H])c([H])c([H])c1[N+](=O)[O-]'],['[#6]1(:[#6](:[#6](:[#6](:[#6](:[#6]:1-[H])-[H])-[#7+](=[#8])-[#8-])-[#8]-[H])-[H])-[H]'],"['InChI=1S/C6H5NO3/c8-6-4-2-1-3-5(6)7(9)10/h1-4,8H']",['IQUPABOKLQSFBK-UHFFFAOYSA-N']
oanisidine_cation->neut,4.53,o-anisidine,Lange's handbook of chemistry,['[H]c1c([H])c([H])c(N([H])[H])c(OC([H])([H])[H])c1[H]'],['[#6]1(:[#6](:[#6](:[#6](:[#6](:[#6]:1-[H])-[H])-[H])-[#7](-[H])-[H])-[#8]-[#6@](-[H])(-[H])-[H])-[H]'],"['InChI=1S/C7H9NO/c1-9-7-5-3-2-4-6(7)8/h2-5H,8H2,1H3']",['VMPITZXILSNTON-UHFFFAOYSA-N']
ofluorophenol_neut->an,8.73,o-fluorophenol,Lange's handbook of chemistry,['[H]Oc1c([H])c([H])c([H])c([H])c1F'],['[#6]1(:[#6](:[#6](:[#6](:[#6](:[#6]:1-[#8]-[H])-[#9])-[H])-[H])-[H])-[H]'],"['InChI=1S/C6H5FO/c7-5-3-1-2-4-6(5)8/h1-4,8H']",['HFHFGHLXUCOHLN-UHFFFAOYSA-N']
omethoxybenzoic_neut->an,4.09,o-methoxybenzoic acid,Lange's handbook of chemistry,['[H]OC(=O)c1c([H])c([H])c([H])c([H])c1OC([H])([H])[H]'],['[#6]1(:[#6](:[#6](:[#6](:[#6](:[#6]:1-[H])-[H])-[#8]-[#6@@](-[H])(-[H])-[H])-[#6](=[#8])-[#8]-[H])-[H])-[H]'],"['InChI=1S/C8H8O3/c1-11-7-5-3-2-4-6(7)8(9)10/h2-5H,1H3,(H,9,10)']",['ILUJQPXNXACGAN-UHFFFAOYSA-N']
ophtalic_neut->an,2.95,o-phthalic acid,profiles of drug substances excipiends and related (U),['[H]OC(=O)c1c([H])c([H])c([H])c([H])c1C(=O)O[H]'],['[#6]1(:[#6](:[#6](:[#6](:[#6](:[#6]:1-[H])-[H])-[H])-[#6](=[#8])-[#8]-[H])-[#6](=[#8])-[#8]-[H])-[H]'],"['InChI=1S/C8H6O4/c9-7(10)5-3-1-2-4-6(5)8(11)12/h1-4H,(H,9,10)(H,11,12)']",['XNGIFLGASWRNHJ-UHFFFAOYSA-N']
ophtalic_an->2an,5.41,o-phthalic acid,profiles of drug substances excipiends and related (U),['[H]OC(=O)c1c([H])c([H])c([H])c([H])c1C(=O)O[H]'],['[#6]1(:[#6](:[#6](:[#6](:[#6](:[#6]:1-[H])-[H])-[H])-[#6](=[#8])-[#8]-[H])-[#6](=[#8])-[#8]-[H])-[H]'],"['InChI=1S/C8H6O4/c9-7(10)5-3-1-2-4-6(5)8(11)12/h1-4H,(H,9,10)(H,11,12)']",['XNGIFLGASWRNHJ-UHFFFAOYSA-N']
ornitine_2cation->cation,1.94,ornithine,Lange's handbook of chemistry,"['[H]N([H])[C@]([H])(C(=O)[O-])C([H])([H])C([H])([H])C([H])([H])[N+]([H])([H])[H]', '[H]N([H])C([H])([H])C([H])([H])C([H])([H])[C@@]([H])(C(=O)[O-])[N+]([H])([H])[H]']","['[#7](-[H])(-[H])-[#6@](-[#6](=[#8])-[#8-])(-[#6@](-[#6@](-[#6@@](-[H])(-[H])-[#7@+](-[H])(-[H])-[H])(-[H])-[H])(-[H])-[H])-[H]', '[H]-[#7@@](-[H])(-[H])-[#6@](-[#6](=[#8])-[#8-])(-[#6@](-[#6@](-[#6@@](-[H])(-[H])-[#7](-[H])-[H])(-[H])-[H])(-[H])-[H])-[H]', '[#7](-[H])(-[H])-[#6@](-[#6](=[#8])-[#8-])(-[#6@](-[#6@](-[#6@@](-[H])(-[H])-[#7@@+](-[H])(-[H])-[H])(-[H])-[H])(-[H])-[H])-[H]']","['InChI=1S/C5H12N2O2/c6-3-1-2-4(7)5(8)9/h4H,1-3,6-7H2,(H,8,9)/t4-/m0/s1']",['AHLPHDHHMVZTML-BYPYZUCNSA-N']
ornitine_cation->neut,8.65,ornithine,Lange's handbook of chemistry,"['[H]N([H])[C@]([H])(C(=O)[O-])C([H])([H])C([H])([H])C([H])([H])[N+]([H])([H])[H]', '[H]N([H])C([H])([H])C([H])([H])C([H])([H])[C@@]([H])(C(=O)[O-])[N+]([H])([H])[H]']","['[#7](-[H])(-[H])-[#6@](-[#6](=[#8])-[#8-])(-[#6@](-[#6@](-[#6@@](-[H])(-[H])-[#7@+](-[H])(-[H])-[H])(-[H])-[H])(-[H])-[H])-[H]', '[H]-[#7@@](-[H])(-[H])-[#6@](-[#6](=[#8])-[#8-])(-[#6@](-[#6@](-[#6@@](-[H])(-[H])-[#7](-[H])-[H])(-[H])-[H])(-[H])-[H])-[H]', '[#7](-[H])(-[H])-[#6@](-[#6](=[#8])-[#8-])(-[#6@](-[#6@](-[#6@@](-[H])(-[H])-[#7@@+](-[H])(-[H])-[H])(-[H])-[H])(-[H])-[H])-[H]']","['InChI=1S/C5H12N2O2/c6-3-1-2-4(7)5(8)9/h4H,1-3,6-7H2,(H,8,9)/t4-/m0/s1']",['AHLPHDHHMVZTML-BYPYZUCNSA-N']