compn,pKa,correct name,reference,smiles,smarts,inchi,inchiKey
3aminoisoquinoline_cation->neut,4.95,3-aminoisoquinoline,10.1002/jcc.23068,['[H]c1c([H])c([H])c2c([H])c(N([H])[H])nc([H])c2c1[H]'],['[#6]1(:[#6](:[#6]2:[#6](:[#6](:[#6]:1-[H])-[H]):[#6](:[#6](:[#7]:[#6]:2-[H])-[#7](-[H])-[H])-[H])-[H])-[H]'],"['InChI=1S/C9H8N2/c10-9-5-7-3-1-2-4-8(7)6-11-9/h1-6H,(H2,10,11)']",['VYCKDIRCVDCQAE-UHFFFAOYSA-N']
3aminopropanoic_cation->neut,3.55,3-aminopropanoic acid,Lange's handbook of chemistry,['[H]C([H])(C(=O)[O-])C([H])([H])[N+]([H])([H])[H]'],"['[#8]=[#6](-[#8-])-[#6@@](-[#6@](-[#7@+](-[H])(-[H])-[H])(-[H])-[H])(-[H])-[H]', '[#6](=[#8])(-[#8-])-[#6@@](-[H])(-[H])-[#6@@](-[H])(-[H])-[#7@@+](-[H])(-[H])-[H]']","['InChI=1S/C3H7NO2/c4-2-1-3(5)6/h1-2,4H2,(H,5,6)']",['UCMIRNVEIXFBKS-UHFFFAOYSA-N']
3aminopropanoic_neut->an,10.24,3-aminopropanoic acid,Lange's handbook of chemistry,['[H]C([H])(C(=O)[O-])C([H])([H])[N+]([H])([H])[H]'],"['[#8]=[#6](-[#8-])-[#6@@](-[#6@](-[#7@+](-[H])(-[H])-[H])(-[H])-[H])(-[H])-[H]', '[#6](=[#8])(-[#8-])-[#6@@](-[H])(-[H])-[#6@@](-[H])(-[H])-[#7@@+](-[H])(-[H])-[H]']","['InChI=1S/C3H7NO2/c4-2-1-3(5)6/h1-2,4H2,(H,5,6)']",['UCMIRNVEIXFBKS-UHFFFAOYSA-N']
3aminopyridine_cation->neut,6.03,3-aminopyridine,Lange's handbook of chemistry,['[H]c1nc([H])c(N([H])[H])c([H])c1[H]'],['[#6]1(:[#6](-[H]):[#7]:[#6](:[#6](:[#6]:1-[H])-[H])-[H])-[#7](-[H])-[H]'],"['InChI=1S/C5H6N2/c6-5-2-1-3-7-4-5/h1-4H,6H2']",['CUYKNJBYIJFRCU-UHFFFAOYSA-N']
3aminopyridineNoxyde_cation->neut,1.47,3-aminopyridine 1-oxide,Lange's handbook of chemistry,['[H]c1c([H])c([H])[n+]([O-])c([H])c1N([H])[H]'],['[#6]1(:[#6](-[H]):[#7+](:[#6](:[#6](:[#6]:1-[H])-[H])-[H])-[#8-])-[#7](-[H])-[H]'],"['InChI=1S/C5H6N2O/c6-5-2-1-3-7(8)4-5/h1-4H,6H2']",['ZGIBIGDAAQIUKA-UHFFFAOYSA-N']
3aminoquinoline_cation->neut,4.95,3-aminoquinoline,Lange's handbook of chemistry,['[H]c1nc2c([H])c([H])c([H])c([H])c2c([H])c1N([H])[H]'],['[#6]1(:[#6](:[#6]2:[#6](:[#6](:[#6]:1-[H])-[H]):[#6](:[#6](:[#6](-[H]):[#7]:2)-[#7](-[H])-[H])-[H])-[H])-[H]'],"['InChI=1S/C9H8N2/c10-8-5-7-3-1-2-4-9(7)11-6-8/h1-6H,10H2']",['SVNCRRZKBNSMIV-UHFFFAOYSA-N']
3bromoaniline_cation->neut,3.53,3-bromoaniline,Lange's handbook of chemistry,['[H]c1c([H])c(Br)c([H])c(N([H])[H])c1[H]'],['[#35]-[#6]1:[#6](:[#6](-[#7](-[H])-[H]):[#6](:[#6](:[#6]:1-[H])-[H])-[H])-[H]'],"['InChI=1S/C6H6BrN/c7-5-2-1-3-6(8)4-5/h1-4H,8H2']",['DHYHYLGCQVVLOQ-UHFFFAOYSA-N']
3bromobenzoic_neut->an,3.81,3-bromobenzoic acid,Lange's handbook of chemistry,['[H]OC(=O)c1c([H])c([H])c([H])c(Br)c1[H]'],['[#35]-[#6]1:[#6](:[#6](:[#6](:[#6](:[#6]:1-[H])-[H])-[H])-[#6](-[#8]-[H])=[#8])-[H]'],"['InChI=1S/C7H5BrO2/c8-6-3-1-2-5(4-6)7(9)10/h1-4H,(H,9,10)']",['VOIZNVUXCQLQHS-UHFFFAOYSA-N']
3bromophenol_neut->an,9.03,3 bromophenol,Lange's handbook of chemistry,['[H]Oc1c([H])c([H])c([H])c(Br)c1[H]'],['[#35]-[#6]1:[#6](:[#6](-[#8]-[H]):[#6](:[#6](:[#6]:1-[H])-[H])-[H])-[H]'],"['InChI=1S/C6H5BrO/c7-5-2-1-3-6(8)4-5/h1-4,8H']",['MNOJRWOWILAHAV-UHFFFAOYSA-N']
3bromophenylphosphonic_an->2an,6.69,3-bromophenylphosphonic acid,Lange's handbook of chemistry,['[H]OP(=O)(O[H])c1c([H])c([H])c([H])c(Br)c1[H]'],['[#8](-[#15@](-[#8]-[H])(=[#8])-[#6]1:[#6](:[#6](:[#6](:[#6](:[#6]:1-[H])-[H])-[H])-[#35])-[H])-[H]'],"['InChI=1S/C6H6BrO3P/c7-5-2-1-3-6(4-5)11(8,9)10/h1-4H,(H2,8,9,10)']",['FVXYXYBKMLOQGI-UHFFFAOYSA-N']
3bromophenylphosphonic_neut->an,1.45,3-bromophenylphosphonic acid,Lange's handbook of chemistry,['[H]OP(=O)(O[H])c1c([H])c([H])c([H])c(Br)c1[H]'],['[#8](-[#15@](-[#8]-[H])(=[#8])-[#6]1:[#6](:[#6](:[#6](:[#6](:[#6]:1-[H])-[H])-[H])-[#35])-[H])-[H]'],"['InChI=1S/C6H6BrO3P/c7-5-2-1-3-6(4-5)11(8,9)10/h1-4H,(H2,8,9,10)']",['FVXYXYBKMLOQGI-UHFFFAOYSA-N']
3chloro4mehtylaniline_cation->neut,4.05,3-chloro-4-methylaniline,Lange's handbook of chemistry,['[H]c1c([H])c(C([H])([H])[H])c(Cl)c([H])c1N([H])[H]'],['[#6]1(:[#6](:[#6](:[#6](:[#6](:[#6]:1-[H])-[#7](-[H])-[H])-[H])-[#17])-[#6@@](-[H])(-[H])-[H])-[H]'],"['InChI=1S/C7H8ClN/c1-5-2-3-6(9)4-7(5)8/h2-4H,9H2,1H3']",['RQKFYFNZSHWXAW-UHFFFAOYSA-N']
3chlorocrotonic_neut->an,3.84,3-chlorocrotonic acid,Lange's handbook of chemistry,['[H]OC(=O)/C([H])=C(\\Cl)C([H])([H])[H]'],['[#8](-[#6](=[#8])/[#6](=[#6](/[#6@@](-[H])(-[H])-[H])-[#17])-[H])-[H]'],"['InChI=1S/C4H5ClO2/c1-3(5)2-4(6)7/h2H,1H3,(H,6,7)/b3-2-']",['XBOTUWGQYMHUFO-IHWYPQMZSA-N']
3chloroisocrotonic_neut->an,4.02,trans-3-chlorocrotonic acid,Lange's handbook of chemistry,['[H]OC(=O)/C([H])=C(/Cl)C([H])([H])[H]'],['[#8](-[#6](=[#8])/[#6](=[#6](\\[#6@@](-[H])(-[H])-[H])-[#17])-[H])-[H]'],"['InChI=1S/C4H5ClO2/c1-3(5)2-4(6)7/h2H,1H3,(H,6,7)/b3-2+']",['XBOTUWGQYMHUFO-NSCUHMNNSA-N']
3chlorootoluidine_cation->neut,2.49,3-chloro-o-toluidine,Lange's handbook of chemistry,['[H]c1c([H])c(Cl)c(C([H])([H])[H])c(N([H])[H])c1[H]'],['[#6]1(:[#6](:[#6](:[#6](:[#6](:[#6]:1-[H])-[H])-[H])-[#7](-[H])-[H])-[#6@@](-[H])(-[H])-[H])-[#17]'],"['InChI=1S/C7H8ClN/c1-5-6(8)3-2-4-7(5)9/h2-4H,9H2,1H3']",['ZUVPLKVDZNDZCM-UHFFFAOYSA-N']
3chloropyridine_cation->neut,2.84,3-chloropyridine,Lange's handbook of chemistry,['[H]c1nc([H])c(Cl)c([H])c1[H]'],['[#6]1(:[#6](-[H]):[#7]:[#6](:[#6](:[#6]:1-[H])-[H])-[H])-[#17]'],['InChI=1S/C5H4ClN/c6-5-2-1-3-7-4-5/h1-4H'],['PWRBCZZQRRPXAB-UHFFFAOYSA-N']
3chloroquinoline_cation->neut,2.63,3-chloroquinoline,10.1002/jcc.23068,['[H]c1nc2c([H])c([H])c([H])c([H])c2c([H])c1Cl'],['[#6]1(:[#6](:[#6]2:[#6](:[#6](:[#6]:1-[H])-[H]):[#6](:[#6](:[#6](-[H]):[#7]:2)-[#17])-[H])-[H])-[H]'],['InChI=1S/C9H6ClN/c10-8-5-7-3-1-2-4-9(7)11-6-8/h1-6H'],['FLORQCMDMHHIHN-UHFFFAOYSA-N']
3cyanopyridine_cation->neut,1.39,3-cyanopyridine,"H. H. Jaff and G. O. Doak. J. Am. Chem. Soc. 77, 4441 (1955).",['[H]c1nc([H])c(C#N)c([H])c1[H]'],['[#6]1(:[#6](-[H]):[#7]:[#6](:[#6](:[#6]:1-[H])-[H])-[H])-[#6]#[#7]'],"['InChI=1S/C6H4N2/c7-4-6-2-1-3-8-5-6/h1-3,5H']",['GZPHSAQLYPIAIN-UHFFFAOYSA-N']
3fluoroaniline_cation->neut,3.58,3-fluoroaniline,Lange's handbook of chemistry,['[H]c1c([H])c(F)c([H])c(N([H])[H])c1[H]'],['[#6]1(:[#6](:[#6](:[#6](:[#6](:[#6]:1-[H])-[#9])-[H])-[H])-[H])-[#7](-[H])-[H]'],"['InChI=1S/C6H6FN/c7-5-2-1-3-6(8)4-5/h1-4H,8H2']",['QZVQQUVWFIZUBQ-UHFFFAOYSA-N']
3fluoropyridine_cation->neut,2.97,3-fluoropyridine,Lange's handbook of chemistry,['[H]c1nc([H])c(F)c([H])c1[H]'],['[#6]1(:[#6](-[H]):[#7]:[#6](:[#6](:[#6]:1-[H])-[H])-[H])-[#9]'],['InChI=1S/C5H4FN/c6-5-2-1-3-7-4-5/h1-4H'],['CELKOWQJPVJKIL-UHFFFAOYSA-N']
3hydroxyacridine_neut->an,9.72,3-hydroxyacridine,"Zeitschrift fuer Elektrochemie und Angewandte Physikalische Chemie (1958), 62, 94-105","['[H]c1c2c([H])c3c([H])c([H])c([H])c([H])c3n([H])c-2c([H])c(=O)c1[H]', '[H]Oc1c([H])c([H])c2c([H])c3c([H])c([H])c([H])c([H])c3nc2c1[H]']","['[#7]1(:[#6]2-[#6](:[#6](:[#6]3:[#6]:1:[#6](:[#6](:[#6](:[#6]:3-[H])-[H])-[H])-[H])-[H]):[#6](:[#6](:[#6](:[#6]:2-[H])=[#8])-[H])-[H])-[H]', '[#7]1:[#6]2:[#6](:[#6](:[#6]3:[#6]:1:[#6](:[#6](:[#6](:[#6]:3-[H])-[H])-[H])-[H])-[H]):[#6](:[#6](:[#6](:[#6]:2-[H])-[#8]-[H])-[H])-[H]']","['InChI=1S/C13H9NO/c15-11-6-5-10-7-9-3-1-2-4-12(9)14-13(10)8-11/h1-8,14H', 'InChI=1S/C13H9NO/c15-11-6-5-10-7-9-3-1-2-4-12(9)14-13(10)8-11/h1-8,15H']","['AOGCEVPCIJMAPG-UHFFFAOYSA-N', 'PCQLWQDFGQKOAO-UHFFFAOYSA-N']"
3hydroxyacridine_cation->neut,5.3,3-hydroxyacridine,"Zeitschrift fuer Elektrochemie und Angewandte Physikalische Chemie (1958), 62, 94-105","['[H]c1c2c([H])c3c([H])c([H])c([H])c([H])c3n([H])c-2c([H])c(=O)c1[H]', '[H]Oc1c([H])c([H])c2c([H])c3c([H])c([H])c([H])c([H])c3nc2c1[H]']","['[#7]1(:[#6]2-[#6](:[#6](:[#6]3:[#6]:1:[#6](:[#6](:[#6](:[#6]:3-[H])-[H])-[H])-[H])-[H]):[#6](:[#6](:[#6](:[#6]:2-[H])=[#8])-[H])-[H])-[H]', '[#7]1:[#6]2:[#6](:[#6](:[#6]3:[#6]:1:[#6](:[#6](:[#6](:[#6]:3-[H])-[H])-[H])-[H])-[H]):[#6](:[#6](:[#6](:[#6]:2-[H])-[#8]-[H])-[H])-[H]']","['InChI=1S/C13H9NO/c15-11-6-5-10-7-9-3-1-2-4-12(9)14-13(10)8-11/h1-8,14H', 'InChI=1S/C13H9NO/c15-11-6-5-10-7-9-3-1-2-4-12(9)14-13(10)8-11/h1-8,15H']","['AOGCEVPCIJMAPG-UHFFFAOYSA-N', 'PCQLWQDFGQKOAO-UHFFFAOYSA-N']"
3hydroxybenzaldehyde_neut->an,9,3-hydroxybenzaldehyde,Lange's handbook of chemistry,['[H]Oc1c([H])c([H])c([H])c(C([H])=O)c1[H]'],['[#6]1(:[#6](:[#6](:[#6](:[#6](:[#6]:1-[H])-[#8]-[H])-[H])-[#6](=[#8])-[H])-[H])-[H]'],"['InChI=1S/C7H6O2/c8-5-6-2-1-3-7(9)4-6/h1-5,9H']",['IAVREABSGIHHMO-UHFFFAOYSA-N']
3hydroxypyridine_cation->neut,4.8,3-hydroxypyridine,Lange's handbook of chemistry,"['[H]Oc1c([H])nc([H])c([H])c1[H]', '[H]c1c([H])c([H])[n+]([H])c([H])c1[O-]']","['[#6]1(:[#6](-[H]):[#7]:[#6](:[#6](:[#6]:1-[H])-[H])-[H])-[#8]-[H]', '[#6]1(:[#6](-[H]):[#7+](:[#6](:[#6](:[#6]:1-[H])-[H])-[H])-[H])-[#8-]']","['InChI=1S/C5H5NO/c7-5-2-1-3-6-4-5/h1-4,7H']",['GRFNBEZIAWKNCO-UHFFFAOYSA-N']
3hydroxypyridine_neut->an,8.72,3-hydroxypyridine,Lange's handbook of chemistry,"['[H]Oc1c([H])nc([H])c([H])c1[H]', '[H]c1c([H])c([H])[n+]([H])c([H])c1[O-]']","['[#6]1(:[#6](-[H]):[#7]:[#6](:[#6](:[#6]:1-[H])-[H])-[H])-[#8]-[H]', '[#6]1(:[#6](-[H]):[#7+](:[#6](:[#6](:[#6]:1-[H])-[H])-[H])-[H])-[#8-]']","['InChI=1S/C5H5NO/c7-5-2-1-3-6-4-5/h1-4,7H']",['GRFNBEZIAWKNCO-UHFFFAOYSA-N']
3hydroxyquinoline_cation->neut,4.3,3-hydroxyquinoline,Lange's handbook of chemistry,"['[H]Oc1c([H])nc2c([H])c([H])c([H])c([H])c2c1[H]', '[H]c1c([H])c([H])c2c(c1[H])c([H])c([O-])c([H])[n+]2[H]']","['[#6]1(:[#6](:[#6]2:[#6](:[#6](:[#6]:1-[H])-[H]):[#6](:[#6](:[#6](-[H]):[#7]:2)-[#8]-[H])-[H])-[H])-[H]', '[#6]1(:[#6](:[#6]2:[#6](:[#6](:[#6]:1-[H])-[H]):[#6](:[#6](:[#6](-[H]):[#7+]:2-[H])-[#8-])-[H])-[H])-[H]']","['InChI=1S/C9H7NO/c11-8-5-7-3-1-2-4-9(7)10-6-8/h1-6,11H']",['IQQDNMHUOLMLNJ-UHFFFAOYSA-N']
3hydroxyquinoline_neut->an,8.06,3-hydroxyquinoline,Lange's handbook of chemistry,"['[H]Oc1c([H])nc2c([H])c([H])c([H])c([H])c2c1[H]', '[H]c1c([H])c([H])c2c(c1[H])c([H])c([O-])c([H])[n+]2[H]']","['[#6]1(:[#6](:[#6]2:[#6](:[#6](:[#6]:1-[H])-[H]):[#6](:[#6](:[#6](-[H]):[#7]:2)-[#8]-[H])-[H])-[H])-[H]', '[#6]1(:[#6](:[#6]2:[#6](:[#6](:[#6]:1-[H])-[H]):[#6](:[#6](:[#6](-[H]):[#7+]:2-[H])-[#8-])-[H])-[H])-[H]']","['InChI=1S/C9H7NO/c11-8-5-7-3-1-2-4-9(7)10-6-8/h1-6,11H']",['IQQDNMHUOLMLNJ-UHFFFAOYSA-N']
3iodoaniline_cation->neut,3.58,3-iodoaniline,Lange's handbook of chemistry,['[H]c1c([H])c(I)c([H])c(N([H])[H])c1[H]'],['[#6]1(:[#6](:[#6](:[#6](:[#6](:[#6]:1-[H])-[H])-[H])-[#53])-[H])-[#7](-[H])-[H]'],"['InChI=1S/C6H6IN/c7-5-2-1-3-6(8)4-5/h1-4H,8H2']",['FFCSRWGYGMRBGD-UHFFFAOYSA-N']
3iodobenzoic_neut->an,3.86,3-iodobenzoic acid,Lange's handbook of chemistry,['[H]OC(=O)c1c([H])c([H])c([H])c(I)c1[H]'],['[#6]1(:[#6](:[#6](:[#6](:[#6](:[#6]:1-[H])-[#6](=[#8])-[#8]-[H])-[H])-[#53])-[H])-[H]'],"['InChI=1S/C7H5IO2/c8-6-3-1-2-5(4-6)7(9)10/h1-4H,(H,9,10)']",['KVBWBCRPWVKFQT-UHFFFAOYSA-N']
3iodophenol_neut->an,8.88,3-iodophenol,Lange's handbook of chemistry,['[H]Oc1c([H])c([H])c([H])c(I)c1[H]'],['[#6]1(:[#6](:[#6](:[#6](:[#6](:[#6]:1-[H])-[H])-[#8]-[H])-[H])-[#53])-[H]'],"['InChI=1S/C6H5IO/c7-5-2-1-3-6(8)4-5/h1-4,8H']",['FXTKWBZFNQHAAO-UHFFFAOYSA-N']
3iodopyridine_cation->neut,3.25,3-iodopyridine,Lange's handbook of chemistry,['[H]c1nc([H])c(I)c([H])c1[H]'],['[#6]1(:[#6](:[#6](-[H]):[#7]:[#6](:[#6]:1-[H])-[H])-[#53])-[H]'],['InChI=1S/C5H4IN/c6-5-2-1-3-7-4-5/h1-4H'],['XDELKSRGBLWMBA-UHFFFAOYSA-N']
3methylthiophenol_neut->an,9.53,3-(methylthio)phenol,10.1021/ja012474j,['[H]Oc1c([H])c([H])c([H])c(SC([H])([H])[H])c1[H]'],['[#16](-[#6]1:[#6](:[#6](-[#8]-[H]):[#6](:[#6](:[#6]:1-[H])-[H])-[H])-[H])-[#6@](-[H])(-[H])-[H]'],"['InChI=1S/C7H8OS/c1-9-7-4-2-3-6(8)5-7/h2-5,8H,1H3']",['LCNLSFRRONIQFX-UHFFFAOYSA-N']
3methylxanthine_neut->an,8.1,3-methylxanthine,Lange's handbook of chemistry,"['[H]Oc1nc(O[H])n(C([H])([H])[H])c2nc([H])nc1-2', '[H]c1n([H])c2c(=O)nc([O-])n(C([H])([H])[H])c2[n+]1[H]', '[H]Oc1nc(=O)c2c(nc([H])n2[H])n1C([H])([H])[H]', '[H]Oc1nc(=O)n(C([H])([H])[H])c2nc([H])n([H])c12', '[H]c1nc2c(=O)n([H])c(=O)n(C([H])([H])[H])c2n1[H]', '[H]Oc1nc(=O)n(C([H])([H])[H])c2c1nc([H])n2[H]', '[H]Oc1nc(=O)c2nc([H])n([H])c2n1C([H])([H])[H]', '[H]c1nc2c(c(=O)n([H])c(=O)n2C([H])([H])[H])n1[H]', '[H]Oc1c2nc([H])nc-2n(C([H])([H])[H])c(=O)n1[H]']","['[#8](-[#6]1:[#7]:[#6](-[#8]-[H]):[#7](:[#6]2:[#7]:[#6](:[#7]:[#6]:1-2)-[H])-[#6@](-[H])(-[H])-[H])-[H]', '[#8]=[#6]1:[#7]:[#6](-[#8-]):[#7](:[#6]2:[#7+](:[#6](:[#7](:[#6]:2:1)-[H])-[H])-[H])-[#6@](-[H])(-[H])-[H]', '[#8]=[#6]1:[#7]:[#6](-[#8]-[H]):[#7](:[#6]2:[#7]:[#6](:[#7](:[#6]:2:1)-[H])-[H])-[#6@](-[H])(-[H])-[H]', '[#8](-[#6]1:[#7]:[#6](=[#8]):[#7](:[#6]2:[#7]:[#6](:[#7](:[#6]:2:1)-[H])-[H])-[#6@](-[H])(-[H])-[H])-[H]', '[#8]=[#6]1:[#7](:[#6](=[#8]):[#7](:[#6]2:[#7](:[#6](:[#7]:[#6]:2:1)-[H])-[H])-[#6@](-[H])(-[H])-[H])-[H]', '[#8](-[#6]1:[#7]:[#6](=[#8]):[#7](:[#6]2:[#7](:[#6](:[#7]:[#6]:2:1)-[H])-[H])-[#6@](-[H])(-[H])-[H])-[H]', '[#8]=[#6]1:[#7]:[#6](-[#8]-[H]):[#7](:[#6]2:[#7](:[#6](:[#7]:[#6]:2:1)-[H])-[H])-[#6@](-[H])(-[H])-[H]', '[#8]=[#6]1:[#7](:[#6](=[#8]):[#7](:[#6]2:[#7]:[#6](:[#7](:[#6]:2:1)-[H])-[H])-[#6@](-[H])(-[H])-[H])-[H]', '[#8](-[#6]1:[#7](:[#6](=[#8]):[#7](:[#6]2:[#7]:[#6](:[#7]:[#6]:1-2)-[H])-[#6@](-[H])(-[H])-[H])-[H])-[H]']","['InChI=1S/C6H6N4O2/c1-10-4-3(7-2-8-4)5(11)9-6(10)12/h2,11H,1H3,(H,9,12)', 'InChI=1S/C6H6N4O2/c1-10-4-3(7-2-8-4)5(11)9-6(10)12/h2H,1H3,(H,7,8)(H,9,11,12)']","['HZOGTQYZAZGBAB-UHFFFAOYSA-N', 'GMSNIKWWOQHZGF-UHFFFAOYSA-N']"
3methylxanthine_an->2an,11.3,3-methylxanthine,Lange's handbook of chemistry,"['[H]Oc1nc(O[H])n(C([H])([H])[H])c2nc([H])nc1-2', '[H]c1n([H])c2c(=O)nc([O-])n(C([H])([H])[H])c2[n+]1[H]', '[H]Oc1nc(=O)c2c(nc([H])n2[H])n1C([H])([H])[H]', '[H]Oc1nc(=O)n(C([H])([H])[H])c2nc([H])n([H])c12', '[H]c1nc2c(=O)n([H])c(=O)n(C([H])([H])[H])c2n1[H]', '[H]Oc1nc(=O)n(C([H])([H])[H])c2c1nc([H])n2[H]', '[H]Oc1nc(=O)c2nc([H])n([H])c2n1C([H])([H])[H]', '[H]c1nc2c(c(=O)n([H])c(=O)n2C([H])([H])[H])n1[H]', '[H]Oc1c2nc([H])nc-2n(C([H])([H])[H])c(=O)n1[H]']","['[#8](-[#6]1:[#7]:[#6](-[#8]-[H]):[#7](:[#6]2:[#7]:[#6](:[#7]:[#6]:1-2)-[H])-[#6@](-[H])(-[H])-[H])-[H]', '[#8]=[#6]1:[#7]:[#6](-[#8-]):[#7](:[#6]2:[#7+](:[#6](:[#7](:[#6]:2:1)-[H])-[H])-[H])-[#6@](-[H])(-[H])-[H]', '[#8]=[#6]1:[#7]:[#6](-[#8]-[H]):[#7](:[#6]2:[#7]:[#6](:[#7](:[#6]:2:1)-[H])-[H])-[#6@](-[H])(-[H])-[H]', '[#8](-[#6]1:[#7]:[#6](=[#8]):[#7](:[#6]2:[#7]:[#6](:[#7](:[#6]:2:1)-[H])-[H])-[#6@](-[H])(-[H])-[H])-[H]', '[#8]=[#6]1:[#7](:[#6](=[#8]):[#7](:[#6]2:[#7](:[#6](:[#7]:[#6]:2:1)-[H])-[H])-[#6@](-[H])(-[H])-[H])-[H]', '[#8](-[#6]1:[#7]:[#6](=[#8]):[#7](:[#6]2:[#7](:[#6](:[#7]:[#6]:2:1)-[H])-[H])-[#6@](-[H])(-[H])-[H])-[H]', '[#8]=[#6]1:[#7]:[#6](-[#8]-[H]):[#7](:[#6]2:[#7](:[#6](:[#7]:[#6]:2:1)-[H])-[H])-[#6@](-[H])(-[H])-[H]', '[#8]=[#6]1:[#7](:[#6](=[#8]):[#7](:[#6]2:[#7]:[#6](:[#7](:[#6]:2:1)-[H])-[H])-[#6@](-[H])(-[H])-[H])-[H]', '[#8](-[#6]1:[#7](:[#6](=[#8]):[#7](:[#6]2:[#7]:[#6](:[#7]:[#6]:1-2)-[H])-[#6@](-[H])(-[H])-[H])-[H])-[H]']","['InChI=1S/C6H6N4O2/c1-10-4-3(7-2-8-4)5(11)9-6(10)12/h2,11H,1H3,(H,9,12)', 'InChI=1S/C6H6N4O2/c1-10-4-3(7-2-8-4)5(11)9-6(10)12/h2H,1H3,(H,7,8)(H,9,11,12)']","['HZOGTQYZAZGBAB-UHFFFAOYSA-N', 'GMSNIKWWOQHZGF-UHFFFAOYSA-N']"
3mercaptopyridine_cation->neut,2.28,3-mercaptopyridine,doi.org/10.1039/JR9590002384,"['[H]Sc1c([H])nc([H])c([H])c1[H]', '[H]c1c([H])c([H])[n+]([H])c([H])c1[S-]']","['[#16](-[#6]1:[#6](:[#6](:[#6](:[#7]:[#6]:1-[H])-[H])-[H])-[H])-[H]', '[#16]-[#6]1:[#6](:[#6](:[#6](:[#7+](:[#6]:1-[H])-[H])-[H])-[H])-[H]']","['InChI=1S/C5H5NS/c7-5-2-1-3-6-4-5/h1-4,7H']",['FFWJHVGUAKWTKW-UHFFFAOYSA-N']
3mercaptopyridine_neut->an,7.01,3-mercaptopyridine,doi.org/10.1039/JR9590002384,"['[H]Sc1c([H])nc([H])c([H])c1[H]', '[H]c1c([H])c([H])[n+]([H])c([H])c1[S-]']","['[#16](-[#6]1:[#6](:[#6](:[#6](:[#7]:[#6]:1-[H])-[H])-[H])-[H])-[H]', '[#16]-[#6]1:[#6](:[#6](:[#6](:[#7+](:[#6]:1-[H])-[H])-[H])-[H])-[H]']","['InChI=1S/C5H5NS/c7-5-2-1-3-6-4-5/h1-4,7H']",['FFWJHVGUAKWTKW-UHFFFAOYSA-N']
3mercaptoquinoline_cation->neut,2.33,3-mercaptoquinoline,doi.org/10.1039/JR9590002384,"['[H]Sc1c([H])nc2c([H])c([H])c([H])c([H])c2c1[H]', '[H]c1c([H])c([H])c2c(c1[H])c([H])c([S-])c([H])[n+]2[H]']","['[#16](-[#6]1:[#6](:[#6]2:[#6](:[#7]:[#6]:1-[H]):[#6](:[#6](:[#6](:[#6]:2-[H])-[H])-[H])-[H])-[H])-[H]', '[#16]-[#6]1:[#6](:[#6]2:[#6](:[#7+](:[#6]:1-[H])-[H]):[#6](:[#6](:[#6](:[#6]:2-[H])-[H])-[H])-[H])-[H]']","['InChI=1S/C9H7NS/c11-8-5-7-3-1-2-4-9(7)10-6-8/h1-6,11H']",['ZPKXXXUAUKOZJA-UHFFFAOYSA-N']
3mercaptoquinoline_neut->an,6.13,3-mercaptoquinoline,doi.org/10.1039/JR9590002384,"['[H]Sc1c([H])nc2c([H])c([H])c([H])c([H])c2c1[H]', '[H]c1c([H])c([H])c2c(c1[H])c([H])c([S-])c([H])[n+]2[H]']","['[#16](-[#6]1:[#6](:[#6]2:[#6](:[#7]:[#6]:1-[H]):[#6](:[#6](:[#6](:[#6]:2-[H])-[H])-[H])-[H])-[H])-[H]', '[#16]-[#6]1:[#6](:[#6]2:[#6](:[#7+](:[#6]:1-[H])-[H]):[#6](:[#6](:[#6](:[#6]:2-[H])-[H])-[H])-[H])-[H]']","['InChI=1S/C9H7NS/c11-8-5-7-3-1-2-4-9(7)10-6-8/h1-6,11H']",['ZPKXXXUAUKOZJA-UHFFFAOYSA-N']
3mercapto12propanediol_neut->an,9.43,"3-mercapto-1,2-propanediol",Lange's handbook of chemistry,['[H]OC([H])([H])[C@@]([H])(O[H])C([H])([H])S[H]'],['[#16](-[#6@@](-[#6@](-[#8]-[H])(-[#6@@](-[#8]-[H])(-[H])-[H])-[H])(-[H])-[H])-[H]'],"['InChI=1S/C3H8O2S/c4-1-3(5)2-6/h3-6H,1-2H2/t3-/m1/s1']",['PJUIMOJAAPLTRJ-GSVOUGTGSA-N']
3mercaptopropanoic_an->2an,10.84,3-mercaptopropanoate,Lange's handbook of chemistry,['[H]SC([H])([H])C([H])([H])C(=O)[O-]'],['[#16](-[#6@@](-[#6@@](-[#6](=[#8])-[#8-])(-[H])-[H])(-[H])-[H])-[H]'],"['InChI=1S/C3H6O2S/c4-3(5)1-2-6/h6H,1-2H2,(H,4,5)/p-1']",['DKIDEFUBRARXTE-UHFFFAOYSA-M']
3methylpyridineNoxyde_cation->neut,1.08,3-methylpyridine1-oxide,10.1007/BF00647006.pdf,['[H]c1c([H])c([H])[n+]([O-])c([H])c1C([H])([H])[H]'],['[#7]1(:[#6](:[#6](:[#6](:[#6](:[#6]:1-[H])-[H])-[H])-[#6@@](-[H])(-[H])-[H])-[H])-[#8-]'],"['InChI=1S/C6H7NO/c1-6-3-2-4-7(8)5-6/h2-5H,1H3']",['DMGGLIWGZFZLIY-UHFFFAOYSA-N']
3methoxycarbonylpyridine_cation->neut,3.13,3-(methoxycarbonyl)pyridine,Lange's handbook of chemistry,['[H]c1nc([H])c(C(=O)OC([H])([H])[H])c([H])c1[H]'],['[#6]1(:[#6](:[#6](-[H]):[#7]:[#6](:[#6]:1-[H])-[H])-[#6](=[#8])-[#8]-[#6@@](-[H])(-[H])-[H])-[H]'],"['InChI=1S/C7H7NO2/c1-10-7(9)6-3-2-4-8-5-6/h2-5H,1H3']",['YNBADRVTZLEFNH-UHFFFAOYSA-N']
3methoxypyridazine_cation->neut,2.5,3-methoxypyridazine,10.1002/jcc.23068,['[H]c1nnc(OC([H])([H])[H])c([H])c1[H]'],['[#6]1(:[#6](:[#7]:[#7]:[#6](:[#6]:1-[H])-[H])-[#8]-[#6@@](-[H])(-[H])-[H])-[H]'],"['InChI=1S/C5H6N2O/c1-8-5-3-2-4-6-7-5/h2-4H,1H3']",['ASFHDLDAWYTMJS-UHFFFAOYSA-N']
3methoxypyridine_cation->neut,4.91,3-methoxypyridine,"R. K. Murmann and F. Basolo. J. Am. Chem. Soc. 77, 3484 (1955)",['[H]c1nc([H])c(OC([H])([H])[H])c([H])c1[H]'],['[#6]1(:[#6](-[H]):[#7]:[#6](:[#6](:[#6]:1-[H])-[H])-[H])-[#8]-[#6@@](-[H])(-[H])-[H]'],"['InChI=1S/C6H7NO/c1-8-6-3-2-4-7-5-6/h2-5H,1H3']",['UMJSCPRVCHMLSP-UHFFFAOYSA-N']
3methylisoquinoline_cation->neut,5.64,3-methylisoquinoline,10.1002/jcc.23068,['[H]c1c([H])c([H])c2c([H])c(C([H])([H])[H])nc([H])c2c1[H]'],['[#6]1(:[#6](:[#6]2:[#6](:[#6](:[#6]:1-[H])-[H]):[#6](:[#6](:[#7]:[#6]:2-[H])-[#6@@](-[H])(-[H])-[H])-[H])-[H])-[H]'],"['InChI=1S/C10H9N/c1-8-6-9-4-2-3-5-10(9)7-11-8/h2-7H,1H3']",['FVVXWRGARUACNW-UHFFFAOYSA-N']
3methylpiperidine_cation->neut,11.07,3-methylpiperidine,"J. P. Horwitz and C. C. Rila. J. Am. Chem. Soc. 80, 431 (1958).",['[H]N1C([H])([H])C([H])([H])C([H])([H])[C@@]([H])(C([H])([H])[H])C1([H])[H]'],['[#7]1(-[#6@](-[#6@@](-[#6@](-[#6@@](-[#6@@]-1(-[H])-[H])(-[H])-[H])(-[H])-[H])(-[#6@@](-[H])(-[H])-[H])-[H])(-[H])-[H])-[H]'],"['InChI=1S/C6H13N/c1-6-3-2-4-7-5-6/h6-7H,2-5H2,1H3/t6-/m1/s1']",['JEGMWWXJUXDNJN-ZCFIWIBFSA-N']
3methylpyridine_cation->neut,5.68,3-methylpyridine,Lange's handbook of chemistry,['[H]c1nc([H])c(C([H])([H])[H])c([H])c1[H]'],['[#6]1(:[#6](-[H]):[#7]:[#6](:[#6](:[#6]:1-[H])-[H])-[H])-[#6@@](-[H])(-[H])-[H]'],"['InChI=1S/C6H7N/c1-6-3-2-4-7-5-6/h2-5H,1H3']",['ITQTTZVARXURQS-UHFFFAOYSA-N']
3methylquinoline_cation->neut,5.15,3-methylquinoline,10.1002/jcc.23068,['[H]c1nc2c([H])c([H])c([H])c([H])c2c([H])c1C([H])([H])[H]'],['[#6]1(:[#6](:[#6]2:[#6](:[#6](:[#6]:1-[H])-[H]):[#7]:[#6](:[#6](:[#6]:2-[H])-[#6@@](-[H])(-[H])-[H])-[H])-[H])-[H]'],"['InChI=1S/C10H9N/c1-8-6-9-4-2-3-5-10(9)11-7-8/h2-7H,1H3']",['DTBDAFLSBDGPEA-UHFFFAOYSA-N']