compn,pKa,correct name,reference,smiles,smarts,inchi,inchiKey
2aminobenzoicmethylester_cation->neut,2.36,2-aminobenzoic acid methyl ester,Lange's handbook of chemistry,['[H]c1c([H])c([H])c(N([H])[H])c(C(=O)OC([H])([H])[H])c1[H]'],['[#8](-[#6](=[#8])-[#6]1:[#6](-[#7](-[H])-[H]):[#6](:[#6](:[#6](:[#6]:1-[H])-[H])-[H])-[H])-[#6@@](-[H])(-[H])-[H]'],"['InChI=1S/C8H9NO2/c1-11-8(10)6-4-2-3-5-7(6)9/h2-5H,9H2,1H3']",['VAMXMNNIEUEQDV-UHFFFAOYSA-N']
2aminobenzosulfonic_neut->an,2.46,2-aminobenzenesulfonic acid,Lange's handbook of chemistry,['[H]c1c([H])c([H])c(S(=O)(=O)[O-])c([N+]([H])([H])[H])c1[H]'],['[#8]=[#16@](=[#8])(-[#8-])-[#6]1:[#6](-[#7@@+](-[H])(-[H])-[H]):[#6](:[#6](:[#6](:[#6]:1-[H])-[H])-[H])-[H]'],"['InChI=1S/C6H7NO3S/c7-5-3-1-2-4-6(5)11(8,9)10/h1-4H,7H2,(H,8,9,10)']",['ZMCHBSMFKQYNKA-UHFFFAOYSA-N']
2aminobenzothiazole_cation->neut,4.48,2-aminobenzothiazole,Lange's handbook of chemistry,['[H]c1c([H])c([H])c2sc(N([H])[H])nc2c1[H]'],['[#6]12:[#6](:[#6](:[#6](:[#6](:[#6]:1-[H])-[H])-[H])-[H]):[#7]:[#6](:[#16]:2)-[#7](-[H])-[H]'],"['InChI=1S/C7H6N2S/c8-7-9-5-3-1-2-4-6(5)10-7/h1-4H,(H2,8,9)']",['UHGULLIUJBCTEF-UHFFFAOYSA-N']
2aminobiphenyl_cation->neut,3.78,2-aminobiphenyl,Lange's handbook of chemistry,['[H]c1c([H])c([H])c(-c2c([H])c([H])c([H])c([H])c2N([H])[H])c([H])c1[H]'],['[#7](-[#6]1:[#6](-[#6]2:[#6](:[#6](:[#6](:[#6](:[#6]:2-[H])-[H])-[H])-[H])-[H]):[#6](:[#6](:[#6](:[#6]:1-[H])-[H])-[H])-[H])(-[H])-[H]'],"['InChI=1S/C12H11N/c13-12-9-5-4-8-11(12)10-6-2-1-3-7-10/h1-9H,13H2']",['TWBPWBPGNQWFSJ-UHFFFAOYSA-N']
2aminoethylphosphonic_an->2an,10.8,2-aminoethylphosphonic acid,Lange's handbook of chemistry,['[H]O[P@](=O)([O-])C([H])([H])C([H])([H])[N+]([H])([H])[H]'],['[#8]=[#15@@](-[#8]-[H])(-[#8-])-[#6@](-[#6@](-[#7@@+](-[H])(-[H])-[H])(-[H])-[H])(-[H])-[H]'],"['InChI=1S/C2H8NO3P/c3-1-2-7(4,5)6/h1-3H2,(H2,4,5,6)']",['QQVDJLLNRSOCEL-UHFFFAOYSA-N']
2aminoethylphosphonic_cation->neut,2.45,2-aminoethylphosphonic acid,Lange's handbook of chemistry,['[H]O[P@](=O)([O-])C([H])([H])C([H])([H])[N+]([H])([H])[H]'],['[#8]=[#15@@](-[#8]-[H])(-[#8-])-[#6@](-[#6@](-[#7@@+](-[H])(-[H])-[H])(-[H])-[H])(-[H])-[H]'],"['InChI=1S/C2H8NO3P/c3-1-2-7(4,5)6/h1-3H2,(H2,4,5,6)']",['QQVDJLLNRSOCEL-UHFFFAOYSA-N']
2aminoethylphosphonic_neut->an,7,2-aminoethylphosphonic acid,Lange's handbook of chemistry,['[H]O[P@](=O)([O-])C([H])([H])C([H])([H])[N+]([H])([H])[H]'],['[#8]=[#15@@](-[#8]-[H])(-[#8-])-[#6@](-[#6@](-[#7@@+](-[H])(-[H])-[H])(-[H])-[H])(-[H])-[H]'],"['InChI=1S/C2H8NO3P/c3-1-2-7(4,5)6/h1-3H2,(H2,4,5,6)']",['QQVDJLLNRSOCEL-UHFFFAOYSA-N']
2aminoimidazole_cation->neut,8.46,2-aminoimidazole,doi.org/10.1039/P29950000431,['[H]c1nc(N([H])[H])n([H])c1[H]'],['[#6]1(:[#7]:[#6](:[#6](-[H]):[#7]:1-[H])-[H])-[#7](-[H])-[H]'],"['InChI=1S/C3H5N3/c4-3-5-1-2-6-3/h1-2H,(H3,4,5,6)']",['DEPDDPLQZYCHOH-UHFFFAOYSA-N']
2aminopyrazine_cation->neut,3.07,2-aminopyrazine,10.1002/jcc.23068,['[H]c1nc([H])c(N([H])[H])nc1[H]'],['[#6]1(:[#6](:[#7]:[#6](:[#6](-[H]):[#7]:1)-[H])-[H])-[#7](-[H])-[H]'],"['InChI=1S/C4H5N3/c5-4-3-6-1-2-7-4/h1-3H,(H2,5,7)']",['XFTQRUTUGRCSGO-UHFFFAOYSA-N']
2aminopyridine_cation->neut,6.71,2-aminopyridine,Lange's handbook of chemistry,['[H]c1nc(N([H])[H])c([H])c([H])c1[H]'],['[#6]1(:[#6](:[#7]:[#6](:[#6](:[#6]:1-[H])-[H])-[H])-[#7](-[H])-[H])-[H]'],"['InChI=1S/C5H6N2/c6-5-3-1-2-4-7-5/h1-4H,(H2,6,7)']",['ICSNLGPSRYBMBD-UHFFFAOYSA-N']
2aminopyrimidine_cation->neut,3.55,2-aminopyrimidine,Lange's handbook of chemistry,['[H]c1nc(N([H])[H])nc([H])c1[H]'],['[#6]1(:[#7]:[#6](:[#6](:[#6](-[H]):[#7]:1)-[H])-[H])-[#7](-[H])-[H]'],"['InChI=1S/C4H5N3/c5-4-6-2-1-3-7-4/h1-3H,(H2,5,6,7)']",['LJXQPZWIHJMPQQ-UHFFFAOYSA-N']
2aminopropanol_cation->neut,9.47,2-aminopropanol,Lange's handbook of chemistry,['[H]OC([H])([H])[C@@]([H])(N([H])[H])C([H])([H])[H]'],['[#8](-[#6@](-[#6@@](-[#7](-[H])-[H])(-[#6@](-[H])(-[H])-[H])-[H])(-[H])-[H])-[H]'],"['InChI=1S/C3H9NO/c1-3(4)2-5/h3,5H,2,4H2,1H3/t3-/m0/s1']",['BKMMTJMQCTUHRP-VKHMYHEASA-N']
2aminoquinoline_cation->neut,7.34,2-aminoquinoline,profiles of drug substances excipiends and related (U),['[H]c1c([H])c([H])c2c([H])c([H])c(N([H])[H])nc2c1[H]'],['[#6]1(:[#6](:[#6]2:[#6](:[#6](:[#6]:1-[H])-[H]):[#6](:[#6](:[#6](:[#7]:2)-[#7](-[H])-[H])-[H])-[H])-[H])-[H]'],"['InChI=1S/C9H8N2/c10-9-6-5-7-3-1-2-4-8(7)11-9/h1-6H,(H2,10,11)']",['GCMNJUJAKQGROZ-UHFFFAOYSA-N']
2aminothiazole_cation->neut,5.36,2-aminothiazole,10.1039/DT9860002025,['[H]c1nc(N([H])[H])sc1[H]'],['[#16]1:[#6](:[#7]:[#6](:[#6]:1-[H])-[H])-[#7](-[H])-[H]'],"['InChI=1S/C3H4N2S/c4-3-5-1-2-6-3/h1-2H,(H2,4,5)']",['RAIPHJJURHTUIC-UHFFFAOYSA-N']
2aminothiophenol_neut->an,5.9,2-aminothiophenol,doi.org/10.1135/cccc19711035,"['[H]c1c([H])c([H])[c-]([H])c(=S)c1[N+]([H])([H])[H]', '[H]Sc1c([H])c([H])c([H])c([H])c1N([H])[H]']","['[#6]1(:[#6-](:[#6](:[#6](:[#6](:[#6]:1-[H])-[H])-[#7@@+](-[H])(-[H])-[H])=[#16])-[H])-[H]', '[#6]1(:[#6](:[#6](:[#6](:[#6](:[#6]:1-[H])-[H])-[#7](-[H])-[H])-[#16]-[H])-[H])-[H]']","['InChI=1S/C6H6NS/c7-5-3-1-2-4-6(5)8/h1-4H,7H2/q-1/p+1', 'InChI=1S/C6H7NS/c7-5-3-1-2-4-6(5)8/h1-4,8H,7H2']","['YXHKWXFUXIDSDL-UHFFFAOYSA-O', 'VRVRGVPWCUEOGV-UHFFFAOYSA-N']"
2bromo6nitrobenzoic_neut->an,1.37,2-bromo-6-nitrobenzoic acid,Lange's handbook of chemistry,['[H]OC(=O)c1c(Br)c([H])c([H])c([H])c1[N+](=O)[O-]'],['[#6]1(:[#6](:[#6](:[#6](:[#6](:[#6]:1-[H])-[H])-[H])-[#35])-[#6](=[#8])-[#8]-[H])-[#7+](=[#8])-[#8-]'],"['InChI=1S/C7H4BrNO4/c8-4-2-1-3-5(9(12)13)6(4)7(10)11/h1-3H,(H,10,11)']",['KWNBOCMNFKJJCK-UHFFFAOYSA-N']
2bromoaniline_cation->neut,2.53,2-bromoaniline,Lange's handbook of chemistry,['[H]c1c([H])c([H])c(N([H])[H])c(Br)c1[H]'],['[#35]-[#6]1:[#6](-[#7](-[H])-[H]):[#6](:[#6](:[#6](:[#6]:1-[H])-[H])-[H])-[H]'],"['InChI=1S/C6H6BrN/c7-5-3-1-2-4-6(5)8/h1-4H,8H2']",['AOPBDRUWRLBSDB-UHFFFAOYSA-N']
2bromobenzoic_neut->an,2.85,2-bromobenzoic acid,Lange's handbook of chemistry,['[H]OC(=O)c1c([H])c([H])c([H])c([H])c1Br'],['[#35]-[#6]1:[#6](:[#6](:[#6](:[#6](:[#6]:1-[H])-[H])-[H])-[H])-[#6](-[#8]-[H])=[#8]'],"['InChI=1S/C7H5BrO2/c8-6-4-2-1-3-5(6)7(9)10/h1-4H,(H,9,10)']",['XRXMNWGCKISMOH-UHFFFAOYSA-N']
2bromophenol_neut->an,8.45,2-bromophenol,Lange's handbook of chemistry,['[H]Oc1c([H])c([H])c([H])c([H])c1Br'],['[#35]-[#6]1:[#6](-[#8]-[H]):[#6](:[#6](:[#6](:[#6]:1-[H])-[H])-[H])-[H]'],"['InChI=1S/C6H5BrO/c7-5-3-1-2-4-6(5)8/h1-4,8H']",['VADKRMSMGWJZCF-UHFFFAOYSA-N']
2bromophenylacetic_neut->an,2.21,2-bromo-2-phenylacetic acid,Lange's handbook of chemistry,['[H]OC(=O)[C@]([H])(Br)c1c([H])c([H])c([H])c([H])c1[H]'],['[#35]-[#6@](-[#6]1:[#6](:[#6](:[#6](:[#6](:[#6]:1-[H])-[H])-[H])-[H])-[H])(-[#6](-[#8]-[H])=[#8])-[H]'],"['InChI=1S/C8H7BrO2/c9-7(8(10)11)6-4-2-1-3-5-6/h1-5,7H,(H,10,11)/t7-/m1/s1']",['WAKFRZBXTKUFIW-SSDOTTSWSA-N']
2bromophenylphosphonic_an->2an,7.37,2-bromophenylphosphonic acid,https://cdnsciencepub.com/doi/pdf/10.1139/v87-290,['[H]OP(=O)(O[H])c1c([H])c([H])c([H])c([H])c1Br'],['[#35]-[#6]1:[#6](-[#15@@](-[#8]-[H])(-[#8]-[H])=[#8]):[#6](:[#6](:[#6](:[#6]:1-[H])-[H])-[H])-[H]'],"['InChI=1S/C6H6BrO3P/c7-5-3-1-2-4-6(5)11(8,9)10/h1-4H,(H2,8,9,10)']",['JFSDFUSYPBGANG-UHFFFAOYSA-N']
2bromophenylphosphonic_neut->an,1.53,2-bromophenylphosphonic acid,https://cdnsciencepub.com/doi/pdf/10.1139/v87-290,['[H]OP(=O)(O[H])c1c([H])c([H])c([H])c([H])c1Br'],['[#35]-[#6]1:[#6](-[#15@@](-[#8]-[H])(-[#8]-[H])=[#8]):[#6](:[#6](:[#6](:[#6]:1-[H])-[H])-[H])-[H]'],"['InChI=1S/C6H6BrO3P/c7-5-3-1-2-4-6(5)11(8,9)10/h1-4H,(H2,8,9,10)']",['JFSDFUSYPBGANG-UHFFFAOYSA-N']
2bromopropanoic_neut->an,2.97,2-bromopropanoic acid,Lange's handbook of chemistry,['[H]OC(=O)[C@@]([H])(Br)C([H])([H])[H]'],['[#35]-[#6@](-[#6](=[#8])-[#8]-[H])(-[#6@](-[H])(-[H])-[H])-[H]'],"['InChI=1S/C3H5BrO2/c1-2(4)3(5)6/h2H,1H3,(H,5,6)/t2-/m0/s1']",['MONMFXREYOKQTI-REOHCLBHSA-N']
2bromopyridine_cation->neut,0.84,2-bromopyridine,Lange's handbook of chemistry,['[H]c1nc(Br)c([H])c([H])c1[H]'],['[#6]1(:[#6](:[#7]:[#6](:[#6](:[#6]:1-[H])-[H])-[H])-[#35])-[H]'],['InChI=1S/C5H4BrN/c6-5-3-1-2-4-7-5/h1-4H'],['IMRWILPUOVGIMU-UHFFFAOYSA-N']
2bromoquinoline_cation->neut,1.5,2-bromoquinoline,10.1002/jcc.23068,['[H]c1c([H])c([H])c2c([H])c([H])c(Br)nc2c1[H]'],['[#6]1(:[#6](:[#6]2:[#6](:[#6](:[#6]:1-[H])-[H]):[#6](:[#6](:[#6](:[#7]:2)-[#35])-[H])-[H])-[H])-[H]'],['InChI=1S/C9H6BrN/c10-9-6-5-7-3-1-2-4-8(7)11-9/h1-6H'],['QKJAZPHKNWSXDF-UHFFFAOYSA-N']
2carbamoylpyridine_cation->neut,2.1,carbamoyl pyridine-2-carboxylate,Lange's handbook of chemistry,['[H]c1nc(C(=O)OC(=O)N([H])[H])c([H])c([H])c1[H]'],['[#8](-[#6](=[#8])-[#6]1:[#7]:[#6](:[#6](:[#6](:[#6]:1-[H])-[H])-[H])-[H])-[#6](=[#8])-[#7](-[H])-[H]'],"['InChI=1S/C7H6N2O3/c8-7(11)12-6(10)5-3-1-2-4-9-5/h1-4H,(H2,8,11)']",['WTHDZIHOIXXPIP-UHFFFAOYSA-N']
2chloro2methylpropanoic_neut->an,2.98,2-chloro-2-methylpropanoic acid,Lange's handbook of chemistry,['[H]OC(=O)C(Cl)(C([H])([H])[H])C([H])([H])[H]'],['[#8](-[#6](=[#8])-[#6@@](-[#6@@](-[H])(-[H])-[H])(-[#6@@](-[H])(-[H])-[H])-[#17])-[H]'],"['InChI=1S/C4H7ClO2/c1-4(2,5)3(6)7/h1-2H3,(H,6,7)']",['MYCXCBCDXVFXNE-UHFFFAOYSA-N']
2chloro3nitrobenzoic_neut->an,2.02,2-chloro-3-nitrobenzoic acid,Lange's handbook of chemistry,['[H]OC(=O)c1c([H])c([H])c([H])c([N+](=O)[O-])c1Cl'],['[#6]1(:[#6](:[#6](:[#6](:[#6](:[#6]:1-[H])-[#7+](=[#8])-[#8-])-[#17])-[#6](=[#8])-[#8]-[H])-[H])-[H]'],"['InChI=1S/C7H4ClNO4/c8-6-4(7(10)11)2-1-3-5(6)9(12)13/h1-3H,(H,10,11)']",['JRQDVRIQJJPHEQ-UHFFFAOYSA-N']
2chloro4nitrobenzoic_neut->an,1.96,2-chloro-4-nitrobenzoic acid,Lange's handbook of chemistry,['[H]OC(=O)c1c([H])c([H])c([N+](=O)[O-])c([H])c1Cl'],['[#6]1(:[#6](:[#6](:[#6](:[#6](:[#6]:1-[#7+](=[#8])-[#8-])-[H])-[#17])-[#6](=[#8])-[#8]-[H])-[H])-[H]'],"['InChI=1S/C7H4ClNO4/c8-6-3-4(9(12)13)1-2-5(6)7(10)11/h1-3H,(H,10,11)']",['QAYNSPOKTRVZRC-UHFFFAOYSA-N']
2chloro5nitrobenzoic_neut->an,2.17,2-chloro-5-nitrobenzoic acid,Lange's handbook of chemistry,['[H]OC(=O)c1c([H])c([N+](=O)[O-])c([H])c([H])c1Cl'],['[#6]1(:[#6](:[#6](:[#6](:[#6](:[#6]:1-[H])-[H])-[#17])-[#6](=[#8])-[#8]-[H])-[H])-[#7+](=[#8])-[#8-]'],"['InChI=1S/C7H4ClNO4/c8-6-2-1-4(9(12)13)3-5(6)7(10)11/h1-3H,(H,10,11)']",['QUEKGYQTRJVEQC-UHFFFAOYSA-N']
2chloro6nitroaniline_cation->neut,-2.41,2-chloro-6-nitroaniline,Lange's handbook of chemistry,['[H]c1c([H])c(Cl)c(N([H])[H])c([N+](=O)[O-])c1[H]'],['[#6]1(:[#6](:[#6](:[#6](:[#6](:[#6]:1-[H])-[H])-[#17])-[#7](-[H])-[H])-[#7+](=[#8])-[#8-])-[H]'],"['InChI=1S/C6H5ClN2O2/c7-4-2-1-3-5(6(4)8)9(10)11/h1-3H,8H2']",['VOTXWUCYIOPNNR-UHFFFAOYSA-N']
2chloroimidazole_cation->neut,3.55,2-chloroimidazole,10.1002/jcc.23068,['[H]c1nc(Cl)n([H])c1[H]'],['[#6]1(:[#7]:[#6](:[#6](-[H]):[#7]:1-[H])-[H])-[#17]'],"['InChI=1S/C3H3ClN2/c4-3-5-1-2-6-3/h1-2H,(H,5,6)']",['OCVXSFKKWXMYPF-UHFFFAOYSA-N']
2chloroisocrotonic_neut->an,2.8,2-chlorocrotonic acid,Lange's handbook of chemistry,['[H]OC(=O)/C(Cl)=C(/[H])C([H])([H])[H]'],['[#8](-[#6](=[#8])/[#6](=[#6](\\[#6@@](-[H])(-[H])-[H])-[H])-[#17])-[H]'],"['InChI=1S/C4H5ClO2/c1-2-3(5)4(6)7/h2H,1H3,(H,6,7)/b3-2+']",['WMDBQMYVAIBBDH-NSCUHMNNSA-N']
2chloropropanoic_neut->an,2.84,2-chloropropanoic acid,Lange's handbook of chemistry,['[H]OC(=O)[C@@]([H])(Cl)C([H])([H])[H]'],['[H]-[#6@@](-[#6@@](-[H])(-[H])-[H])(-[#17])-[#6](=[#8])-[#8]-[H]'],"['InChI=1S/C3H5ClO2/c1-2(4)3(5)6/h2H,1H3,(H,5,6)/t2-/m0/s1']",['GAWAYYRQGQZKCR-REOHCLBHSA-N']
2chloropyridine_cation->neut,0.47,2-chloropyridine,Lange's handbook of chemistry,['[H]c1nc(Cl)c([H])c([H])c1[H]'],['[#6]1(:[#6](:[#7]:[#6](:[#6](:[#6]:1-[H])-[H])-[H])-[#17])-[H]'],['InChI=1S/C5H4ClN/c6-5-3-1-2-4-7-5/h1-4H'],['OKDGRDCXVWSXDC-UHFFFAOYSA-N']
2cyano2methylpropanoic_neut->an,2.29,2-cyano-2-methylpropanoic acid,Lange's handbook of chemistry,['[H]OC(=O)C(C#N)(C([H])([H])[H])C([H])([H])[H]'],['[H]-[#6@](-[#6@@](-[#6@@](-[H])(-[H])-[H])(-[#6]#[#7])-[#6](=[#8])-[#8]-[H])(-[H])-[H]'],"['InChI=1S/C5H7NO2/c1-5(2,3-6)4(7)8/h1-2H3,(H,7,8)']",['DZDVNAVPCCNJRK-UHFFFAOYSA-N']
2cyanopropanoic_neut->an,2.37,2-cyanopropanoic acid,Lange's handbook of chemistry,['[H]OC(=O)[C@@]([H])(C#N)C([H])([H])[H]'],['[#8](-[#6](=[#8])-[#6@](-[#6@@](-[H])(-[H])-[H])(-[#6]#[#7])-[H])-[H]'],"['InChI=1S/C4H5NO2/c1-3(2-5)4(6)7/h3H,1H3,(H,6,7)/t3-/m1/s1']",['JDEFPFLTCXIVDH-GSVOUGTGSA-N']
2cyanopyridine_cation->neut,-0.26,2-cyanopyridine,Lange's handbook of chemistry,['[H]c1nc(C#N)c([H])c([H])c1[H]'],['[#6]1(:[#6](:[#7]:[#6](:[#6](:[#6]:1-[H])-[H])-[H])-[#6]#[#7])-[H]'],['InChI=1S/C6H4N2/c7-5-6-3-1-2-4-8-6/h1-4H'],['FFNVQNRYTPFDDP-UHFFFAOYSA-N']
2dicyanoethylamine_cation->neut,5.14,2-(aminomethyl)propanedinitrile,Lange's handbook of chemistry,['[H]N([H])C([H])([H])C([H])(C#N)C#N'],['[H]-[#6@@](-[#6]#[#7])(-[#6]#[#7])-[#6@@](-[H])(-[H])-[#7](-[H])-[H]'],"['InChI=1S/C4H5N3/c5-1-4(2-6)3-7/h4H,1,5H2']",['KKAOKGAELKHSOH-UHFFFAOYSA-N']
2dimethylaminopyrazine_cation->neut,3.24,(dimethylamino)pyrazine,10.1002/jcc.23068,['[H]c1nc([H])c(N(C([H])([H])[H])C([H])([H])[H])nc1[H]'],['[#6]1(:[#6](:[#7]:[#6](:[#6](-[H]):[#7]:1)-[H])-[H])-[#7](-[#6@@](-[H])(-[H])-[H])-[#6@@](-[H])(-[H])-[H]'],"['InChI=1S/C6H9N3/c1-9(2)6-5-7-3-4-8-6/h3-5H,1-2H3']",['UUINNXPPLPDRQX-UHFFFAOYSA-N']
2fluoroaniline_cation->neut,3.2,2-fluoroaniline,Lange's handbook of chemistry,['[H]c1c([H])c([H])c(N([H])[H])c(F)c1[H]'],['[#6]1(:[#6](:[#6](:[#6](:[#6](:[#6]:1-[#7](-[H])-[H])-[#9])-[H])-[H])-[H])-[H]'],"['InChI=1S/C6H6FN/c7-5-3-1-2-4-6(5)8/h1-4H,8H2']",['FTZQXOJYPFINKJ-UHFFFAOYSA-N']
2fluoropyridine_cation->neut,-0.44,2-fluoropyridine,Lange's handbook of chemistry,['[H]c1nc(F)c([H])c([H])c1[H]'],['[#6]1(:[#6](:[#7]:[#6](:[#6](:[#6]:1-[H])-[H])-[H])-[#9])-[H]'],['InChI=1S/C5H4FN/c6-5-3-1-2-4-7-5/h1-4H'],['MTAODLNXWYIKSO-UHFFFAOYSA-N']
2hydroxy3methylbenzoic_neut->an,2.99,2-hydroxy-3-methylbenzoic acid,Lange's handbook of chemistry,['[H]OC(=O)c1c([H])c([H])c([H])c(C([H])([H])[H])c1O[H]'],['[#6]1(:[#6](:[#6](:[#6](:[#6](:[#6]:1-[H])-[#6@@](-[H])(-[H])-[H])-[#8]-[H])-[#6](=[#8])-[#8]-[H])-[H])-[H]'],"['InChI=1S/C8H8O3/c1-5-3-2-4-6(7(5)9)8(10)11/h2-4,9H,1H3,(H,10,11)']",['WHSXTWFYRGOBGO-UHFFFAOYSA-N']
2hydroxy3nitrobenzoic_neut->an,1.87,2-hydroxy-3-nitrobenzoic acid,Lange's handbook of chemistry,['[H]OC(=O)c1c([H])c([H])c([H])c([N+](=O)[O-])c1O[H]'],['[#6]1(:[#6](:[#6](:[#6](:[#6](:[#6]:1-[H])-[#7+](=[#8])-[#8-])-[#8]-[H])-[#6](=[#8])-[#8]-[H])-[H])-[H]'],"['InChI=1S/C7H5NO5/c9-6-4(7(10)11)2-1-3-5(6)8(12)13/h1-3,9H,(H,10,11)']",['WWWFHFGUOIQNJC-UHFFFAOYSA-N']
2hydroxy4methylpyridine_cation->neut,1.14,2-hydroxy-4methylpyridine,"E. Spinner, J. C. B. White, J. Chem. Soc. B 1966, 991",['[H]c1c(C([H])([H])[H])c([H])c(=O)n([H])c1[H]'],['[#6]1(:[#6](:[#7](:[#6](:[#6](:[#6]:1-[#6@@](-[H])(-[H])-[H])-[H])-[H])-[H])=[#8])-[H]'],"['InChI=1S/C6H7NO/c1-5-2-3-7-6(8)4-5/h2-4H,1H3,(H,7,8)']",['YBDRFJXGJQULGH-UHFFFAOYSA-N']
2hydroxy4methylpyridine_neut->an,12.23,2-hydroxy-4methylpyridine,"E. Spinner, J. C. B. White, J. Chem. Soc. B 1966, 991",['[H]c1c(C([H])([H])[H])c([H])c(=O)n([H])c1[H]'],['[#6]1(:[#6](:[#7](:[#6](:[#6](:[#6]:1-[#6@@](-[H])(-[H])-[H])-[H])-[H])-[H])=[#8])-[H]'],"['InChI=1S/C6H7NO/c1-5-2-3-7-6(8)4-5/h2-4H,1H3,(H,7,8)']",['YBDRFJXGJQULGH-UHFFFAOYSA-N']
2hydroxy1naphtoic_neut->an,2.7,2-hydroxy-1-naphtoic acid,https://doi.org/10.1016/S0003-2670(01)80859-X,['[H]OC(=O)c1c(O[H])c([H])c([H])c2c([H])c([H])c([H])c([H])c12'],['[#8](-[#6]1:[#6](:[#6]2:[#6](:[#6](:[#6]:1-[H])-[H]):[#6](:[#6](:[#6](:[#6]:2-[H])-[H])-[H])-[H])-[#6](-[#8]-[H])=[#8])-[H]'],"['InChI=1S/C11H8O3/c12-9-6-5-7-3-1-2-4-8(7)10(9)11(13)14/h1-6,12H,(H,13,14)']",['UPHOPMSGKZNELG-UHFFFAOYSA-N']
2hydroxy1naphtoic_an->2an,11.9,2-hydroxy-1-naphtoic acid,https://doi.org/10.1016/S0003-2670(01)80859-X,['[H]OC(=O)c1c(O[H])c([H])c([H])c2c([H])c([H])c([H])c([H])c12'],['[#8](-[#6]1:[#6](:[#6]2:[#6](:[#6](:[#6]:1-[H])-[H]):[#6](:[#6](:[#6](:[#6]:2-[H])-[H])-[H])-[H])-[#6](-[#8]-[H])=[#8])-[H]'],"['InChI=1S/C11H8O3/c12-9-6-5-7-3-1-2-4-8(7)10(9)11(13)14/h1-6,12H,(H,13,14)']",['UPHOPMSGKZNELG-UHFFFAOYSA-N']
2hydroxy5nitrobenzoic_neut->an,2.12,2-hydroxy-5-nitrobenzoic acid,Lange's handbook of chemistry,['[H]OC(=O)c1c([H])c([N+](=O)[O-])c([H])c([H])c1O[H]'],['[#6]1(:[#6](:[#6](:[#6](:[#6](:[#6]:1-[H])-[H])-[#8]-[H])-[#6](=[#8])-[#8]-[H])-[H])-[#7+](=[#8])-[#8-]'],"['InChI=1S/C7H5NO5/c9-6-2-1-4(8(12)13)3-5(6)7(10)11/h1-3,9H,(H,10,11)']",['PPDRLQLKHRZIJC-UHFFFAOYSA-N']
2hydroxy6nitrobenzoic_neut->an,2.24,2-hydroxy-6-nitrobenzoic acid,Lange's handbook of chemistry,['[H]OC(=O)c1c(O[H])c([H])c([H])c([H])c1[N+](=O)[O-]'],['[#6]1(:[#6](:[#6](:[#6](:[#6](:[#6]:1-[H])-[H])-[#8]-[H])-[#6](=[#8])-[#8]-[H])-[#7+](=[#8])-[#8-])-[H]'],"['InChI=1S/C7H5NO5/c9-5-3-1-2-4(8(12)13)6(5)7(10)11/h1-3,9H,(H,10,11)']",['QICHZWUWPVMQTD-UHFFFAOYSA-N']
2hydroxyacridine_cation->neut,5.62,2-hydroxyacridine,"Zeitschrift fuer Elektrochemie und Angewandte Physikalische Chemie (1958), 62, 94-105","['[H]Oc1c([H])c([H])c2nc3c([H])c([H])c([H])c([H])c3c([H])c2c1[H]', '[H]c1c([H])c([H])c2c(c1[H])c([H])c1c([H])c([O-])c([H])c([H])c1[n+]2[H]']","['[#8](-[#6]1:[#6](:[#6]2:[#6](:[#7]:[#6]3:[#6](:[#6]:2-[H]):[#6](:[#6](:[#6](:[#6]:3-[H])-[H])-[H])-[H]):[#6](:[#6]:1-[H])-[H])-[H])-[H]', '[#8]-[#6]1:[#6](:[#6]2:[#6](:[#7+](:[#6]3:[#6](:[#6]:2-[H]):[#6](:[#6](:[#6](:[#6]:3-[H])-[H])-[H])-[H])-[H]):[#6](:[#6]:1-[H])-[H])-[H]']","['InChI=1S/C13H9NO/c15-11-5-6-13-10(8-11)7-9-3-1-2-4-12(9)14-13/h1-8,15H']",['VUZCWTUAXNDZSX-UHFFFAOYSA-N']
2hydroxyacridine_neut->an,8.85,2-hydroxyacridine,"Zeitschrift fuer Elektrochemie und Angewandte Physikalische Chemie (1958), 62, 94-105","['[H]Oc1c([H])c([H])c2nc3c([H])c([H])c([H])c([H])c3c([H])c2c1[H]', '[H]c1c([H])c([H])c2c(c1[H])c([H])c1c([H])c([O-])c([H])c([H])c1[n+]2[H]']","['[#8](-[#6]1:[#6](:[#6]2:[#6](:[#7]:[#6]3:[#6](:[#6]:2-[H]):[#6](:[#6](:[#6](:[#6]:3-[H])-[H])-[H])-[H]):[#6](:[#6]:1-[H])-[H])-[H])-[H]', '[#8]-[#6]1:[#6](:[#6]2:[#6](:[#7+](:[#6]3:[#6](:[#6]:2-[H]):[#6](:[#6](:[#6](:[#6]:3-[H])-[H])-[H])-[H])-[H]):[#6](:[#6]:1-[H])-[H])-[H]']","['InChI=1S/C13H9NO/c15-11-5-6-13-10(8-11)7-9-3-1-2-4-12(9)14-13/h1-8,15H']",['VUZCWTUAXNDZSX-UHFFFAOYSA-N']
2hydroxybenzaldehyde_neut->an,8.34,2-hydroxybenzaldehyde,Lange's handbook of chemistry,['[H]Oc1c([H])c([H])c([H])c([H])c1C([H])=O'],['[#6]1(:[#6](:[#6](:[#6](:[#6](:[#6]:1-[H])-[H])-[#8]-[H])-[#6](=[#8])-[H])-[H])-[H]'],"['InChI=1S/C7H6O2/c8-5-6-3-1-2-4-7(6)9/h1-5,9H']",['SMQUZDBALVYZAC-UHFFFAOYSA-N']
2hydroxybenzamide_neut->an,8.47,2-hydroxybenzamide,profiles of drug substances excipiends and related (U),['[H]Oc1c([H])c([H])c([H])c([H])c1C(=O)N([H])[H]'],['[#8](-[#6]1:[#6](:[#6](:[#6](:[#6](:[#6]:1-[H])-[H])-[H])-[H])-[#6](=[#8])-[#7](-[H])-[H])-[H]'],"['InChI=1S/C7H7NO2/c8-7(10)5-3-1-2-4-6(5)9/h1-4,9H,(H2,8,10)']",['SKZKKFZAGNVIMN-UHFFFAOYSA-N']
2hydroxypyridine_neut->an,11.6,2-hydroxypyridine,Lange's handbook of chemistry,"['[H]Oc1nc([H])c([H])c([H])c1[H]', '[H]c1c([H])c([H])n([H])c(=O)c1[H]']","['[#6]1(:[#6](:[#7]:[#6](:[#6](:[#6]:1-[H])-[H])-[H])-[#8]-[H])-[H]', '[#6]1(:[#6](:[#7](:[#6](:[#6](:[#6]:1-[H])-[H])-[H])-[H])=[#8])-[H]']","['InChI=1S/C5H5NO/c7-5-3-1-2-4-6-5/h1-4H,(H,6,7)']",['UBQKCCHYAOITMY-UHFFFAOYSA-N']
2hydroxypyridineNoxyde_cation->neut,-0.8,2-hydroxypyridine 1-oxide,doi.org/10.1039/JR9570004375,"['[H]/[O+]=c1/c([H])c([H])c([H])c([H])n1[O-]', '[H]On1c([H])c([H])c([H])c([H])c1=O', '[H]/[O+]=c1\\c([H])c([H])c([H])c([H])n1[O-]', '[H]Oc1c([H])c([H])c([H])c([H])[n+]1[O-]']","['[#6]1(:[#6](-[H]):[#7](:[#6](:[#6](:[#6]:1-[H])-[H])=[#8+]\\[H])-[#8-])-[H]', '[#6]1(:[#6](-[H]):[#7](:[#6](:[#6](:[#6]:1-[H])-[H])=[#8])-[#8]-[H])-[H]', '[#8]=[#6]1:[#7](-[#8]-[H]):[#6](:[#6](:[#6](:[#6]:1-[H])-[H])-[H])-[H]', '[#6]1(:[#6](-[H]):[#7](:[#6](:[#6](:[#6]:1-[H])-[H])=[#8+]/[H])-[#8-])-[H]', '[#8](-[#6]1:[#7+](-[#8-]):[#6](:[#6](:[#6](:[#6]:1-[H])-[H])-[H])-[H])-[H]']","['InChI=1S/C5H4NO2/c7-5-3-1-2-4-6(5)8/h1-4H/q-1/p+1', 'InChI=1S/C5H5NO2/c7-5-3-1-2-4-6(5)8/h1-4,8H', 'InChI=1S/C5H5NO2/c7-5-3-1-2-4-6(5)8/h1-4,7H']","['SAYZJFOLGGTDDQ-UHFFFAOYSA-O', 'SNUSZUYTMHKCPM-UHFFFAOYSA-N', 'JVHZMYAXZUIZKS-UHFFFAOYSA-N']"