compn,pKa,correct name,reference,smiles,smarts,inchi,inchiKey
ornitine_neut->an,10.76,ornithine,Lange's handbook of chemistry,"['[H]N([H])[C@]([H])(C(=O)[O-])C([H])([H])C([H])([H])C([H])([H])[N+]([H])([H])[H]', '[H]N([H])C([H])([H])C([H])([H])C([H])([H])[C@@]([H])(C(=O)[O-])[N+]([H])([H])[H]']","['[#7](-[H])(-[H])-[#6@](-[#6](=[#8])-[#8-])(-[#6@](-[#6@](-[#6@@](-[H])(-[H])-[#7@+](-[H])(-[H])-[H])(-[H])-[H])(-[H])-[H])-[H]', '[H]-[#7@@](-[H])(-[H])-[#6@](-[#6](=[#8])-[#8-])(-[#6@](-[#6@](-[#6@@](-[H])(-[H])-[#7](-[H])-[H])(-[H])-[H])(-[H])-[H])-[H]', '[#7](-[H])(-[H])-[#6@](-[#6](=[#8])-[#8-])(-[#6@](-[#6@](-[#6@@](-[H])(-[H])-[#7@@+](-[H])(-[H])-[H])(-[H])-[H])(-[H])-[H])-[H]']","['InChI=1S/C5H12N2O2/c6-3-1-2-4(7)5(8)9/h4H,1-3,6-7H2,(H,8,9)/t4-/m0/s1']",['AHLPHDHHMVZTML-BYPYZUCNSA-N']
otoluidine_cation->neut,4.45,o-toluidine,Lange's handbook of chemistry,['[H]c1c([H])c([H])c(C([H])([H])[H])c(N([H])[H])c1[H]'],['[#6]1(:[#6](:[#6](:[#6](:[#6](:[#6]:1-[H])-[H])-[H])-[H])-[#6@@](-[H])(-[H])-[H])-[#7](-[H])-[H]'],"['InChI=1S/C7H9N/c1-6-4-2-3-5-7(6)8/h2-5H,8H2,1H3']",['RNVCVTLRINQCPJ-UHFFFAOYSA-N']
oxalic_an->2an,4.27,oxalic acid,Lange's handbook of chemistry,['[H]OC(=O)C(=O)O[H]'],['[#6](=[#8])(-[#8]-[H])-[#6](=[#8])-[#8]-[H]'],"['InChI=1S/C2H2O4/c3-1(4)2(5)6/h(H,3,4)(H,5,6)']",['MUBZPKHOEPUJKR-UHFFFAOYSA-N']
oxalic_neut->an,1.28,oxalic acid,Lange's handbook of chemistry,['[H]OC(=O)C(=O)O[H]'],['[#6](=[#8])(-[#8]-[H])-[#6](=[#8])-[#8]-[H]'],"['InChI=1S/C2H2O4/c3-1(4)2(5)6/h(H,3,4)(H,5,6)']",['MUBZPKHOEPUJKR-UHFFFAOYSA-N']
oxazole_cation->neut,0.8,oxazole,10.1002/jcc.23068,['[H]c1nc([H])c([H])o1'],['[#6]1(:[#7]:[#6](:[#6](-[H]):[#8]:1)-[H])-[H]'],['InChI=1S/C3H3NO/c1-2-5-3-4-1/h1-3H'],['ZCQWOFVYLHDMMC-UHFFFAOYSA-N']
p-acetylphenol_neut->an,8.05,p-acetylphenol,Lange's handbook of chemistry,['[H]Oc1c([H])c([H])c(C(=O)C([H])([H])[H])c([H])c1[H]'],['[#6]1(:[#6](:[#6](:[#6](:[#6](:[#6]:1-[#6](-[#6@@](-[H])(-[H])-[H])=[#8])-[H])-[H])-[#8]-[H])-[H])-[H]'],"['InChI=1S/C8H8O2/c1-6(9)7-2-4-8(10)5-3-7/h2-5,10H,1H3']",['TXFPEBPIARQUIG-UHFFFAOYSA-N']
p-aminophenol_neut->an,10.3,p-aminophenol,Lange's handbook of chemistry,"['[H]Oc1c([H])c([H])c(N([H])[H])c([H])c1[H]', '[H]c1c([H])c([N+]([H])([H])[H])c([H])c([H])c1[O-]']","['[#6]1(:[#6](:[#6](:[#6](:[#6](:[#6]:1-[#7](-[H])-[H])-[H])-[H])-[#8]-[H])-[H])-[H]', '[#6]1(:[#6](:[#6](:[#6](:[#6](:[#6]:1-[#7@@+](-[H])(-[H])-[H])-[H])-[H])-[#8-])-[H])-[H]']","['InChI=1S/C6H7NO/c7-5-1-3-6(8)4-2-5/h1-4,8H,7H2']",['PLIKAWJENQZMHA-UHFFFAOYSA-N']
p-aminophenol_cation->neut,5.48,p-aminophenol,CRC handbook,"['[H]Oc1c([H])c([H])c(N([H])[H])c([H])c1[H]', '[H]c1c([H])c([N+]([H])([H])[H])c([H])c([H])c1[O-]']","['[#6]1(:[#6](:[#6](:[#6](:[#6](:[#6]:1-[#7](-[H])-[H])-[H])-[H])-[#8]-[H])-[H])-[H]', '[#6]1(:[#6](:[#6](:[#6](:[#6](:[#6]:1-[#7@@+](-[H])(-[H])-[H])-[H])-[H])-[#8-])-[H])-[H]']","['InChI=1S/C6H7NO/c7-5-1-3-6(8)4-2-5/h1-4,8H,7H2']",['PLIKAWJENQZMHA-UHFFFAOYSA-N']
p-chlorobenzoic_neut->an,3.99,p-chlorobenzoic acid,Lange's handbook of chemistry,['[H]OC(=O)c1c([H])c([H])c(Cl)c([H])c1[H]'],['[#6]1(:[#6](:[#6](:[#6](:[#6](:[#6]:1-[H])-[#17])-[H])-[H])-[#6](=[#8])-[#8]-[H])-[H]'],"['InChI=1S/C7H5ClO2/c8-6-3-1-5(2-4-6)7(9)10/h1-4H,(H,9,10)']",['XRHGYUZYPHTUJZ-UHFFFAOYSA-N']
p-chlorophenol_neut->an,9.43,p-chlorophenol,Lange's handbook of chemistry,['[H]Oc1c([H])c([H])c(Cl)c([H])c1[H]'],['[#6]1(:[#6](:[#6](:[#6](:[#6](:[#6]:1-[#17])-[H])-[H])-[#8]-[H])-[H])-[H]'],"['InChI=1S/C6H5ClO/c7-5-1-3-6(8)4-2-5/h1-4,8H']",['WXNZTHHGJRFXKQ-UHFFFAOYSA-N']
p-claniline_cation->neut,3.99,p-chloraniline,Lange's handbook of chemistry,['[H]c1c([H])c(N([H])[H])c([H])c([H])c1Cl'],['[#6]1(:[#6](:[#6](:[#6](:[#6](:[#6]:1-[#17])-[H])-[H])-[#7](-[H])-[H])-[H])-[H]'],"['InChI=1S/C6H6ClN/c7-5-1-3-6(8)4-2-5/h1-4H,8H2']",['QSNSCYSYFYORTR-UHFFFAOYSA-N']
p-cresol_neut->an,10.26,p-cresol,Lange's handbook of chemistry,['[H]Oc1c([H])c([H])c(C([H])([H])[H])c([H])c1[H]'],['[#6]1(:[#6](:[#6](:[#6](:[#6](:[#6]:1-[H])-[H])-[#8]-[H])-[H])-[H])-[#6@@](-[H])(-[H])-[H]'],"['InChI=1S/C7H8O/c1-6-2-4-7(8)5-3-6/h2-5,8H,1H3']",['IWDCLRJOBJJRNH-UHFFFAOYSA-N']
p-cyanobenzoic_neut->an,3.55,p-cyanobenzoic acid,Lange's handbook of chemistry,['[H]OC(=O)c1c([H])c([H])c(C#N)c([H])c1[H]'],['[#6]1(:[#6](:[#6](:[#6](:[#6](:[#6]:1-[H])-[#6]#[#7])-[H])-[H])-[#6](=[#8])-[#8]-[H])-[H]'],"['InChI=1S/C8H5NO2/c9-5-6-1-3-7(4-2-6)8(10)11/h1-4H,(H,10,11)']",['ADCUEPOHPCPMCE-UHFFFAOYSA-N']
p-cyanophenol_neut->an,7.95,p-cyanophenol,10.1021/ja012474j,['[H]Oc1c([H])c([H])c(C#N)c([H])c1[H]'],['[#6]1(:[#6](:[#6](:[#6](:[#6](:[#6]:1-[#6]#[#7])-[H])-[H])-[#8]-[H])-[H])-[H]'],"['InChI=1S/C7H5NO/c8-5-6-1-3-7(9)4-2-6/h1-4,9H']",['CVNOWLNNPYYEOH-UHFFFAOYSA-N']
p-fluorobenzoic_neut->an,4.14,p-fluorobenzoic acid,Lange's handbook of chemistry,['[H]OC(=O)c1c([H])c([H])c(F)c([H])c1[H]'],['[#6]1(:[#6](:[#6](:[#6](:[#6](:[#6]:1-[H])-[#9])-[H])-[H])-[#6](=[#8])-[#8]-[H])-[H]'],"['InChI=1S/C7H5FO2/c8-6-3-1-5(2-4-6)7(9)10/h1-4H,(H,9,10)']",['BBYDXOIZLAWGSL-UHFFFAOYSA-N']
p-fluorophenol_neut->an,9.89,p-fluorophenol,Lange's handbook of chemistry,['[H]Oc1c([H])c([H])c(F)c([H])c1[H]'],['[#6]1(:[#6](:[#6](:[#6](:[#6](:[#6]:1-[#9])-[H])-[H])-[#8]-[H])-[H])-[H]'],"['InChI=1S/C6H5FO/c7-5-1-3-6(8)4-2-5/h1-4,8H']",['RHMPLDJJXGPMEX-UHFFFAOYSA-N']
p-hydroxybenzoic_an->2an,9.23,p-hydroxybenzoic acid,Lange's handbook of chemistry,['[H]OC(=O)c1c([H])c([H])c(O[H])c([H])c1[H]'],['[#6]1(:[#6](:[#6](:[#6](:[#6](:[#6]:1-[H])-[#8]-[H])-[H])-[H])-[#6](=[#8])-[#8]-[H])-[H]'],"['InChI=1S/C7H6O3/c8-6-3-1-5(2-4-6)7(9)10/h1-4,8H,(H,9,10)']",['FJKROLUGYXJWQN-UHFFFAOYSA-N']
p-hydroxybenzoic_neut->an,4.58,p-hydroxybenzoic acid,Lange's handbook of chemistry,['[H]OC(=O)c1c([H])c([H])c(O[H])c([H])c1[H]'],['[#6]1(:[#6](:[#6](:[#6](:[#6](:[#6]:1-[H])-[#8]-[H])-[H])-[H])-[#6](=[#8])-[#8]-[H])-[H]'],"['InChI=1S/C7H6O3/c8-6-3-1-5(2-4-6)7(9)10/h1-4,8H,(H,9,10)']",['FJKROLUGYXJWQN-UHFFFAOYSA-N']
p-hydroxyphenol_neut->an,9.91,p-hydroxyphenol,Lange's handbook of chemistry,['[H]Oc1c([H])c([H])c(O[H])c([H])c1[H]'],['[#6]1(:[#6](:[#6](:[#6](:[#6](:[#6]:1-[#8]-[H])-[H])-[H])-[#8]-[H])-[H])-[H]'],"['InChI=1S/C6H6O2/c7-5-1-2-6(8)4-3-5/h1-4,7-8H']",['QIGBRXMKCJKVMJ-UHFFFAOYSA-N']
p-hydroxyphenol_an->2an,12.04,p-hydroxyphenol,Lange's handbook of chemistry,['[H]Oc1c([H])c([H])c(O[H])c([H])c1[H]'],['[#6]1(:[#6](:[#6](:[#6](:[#6](:[#6]:1-[#8]-[H])-[H])-[H])-[#8]-[H])-[H])-[H]'],"['InChI=1S/C6H6O2/c7-5-1-2-6(8)4-3-5/h1-4,7-8H']",['QIGBRXMKCJKVMJ-UHFFFAOYSA-N']
p-mercaptophenol_neut->an,9.53,4-methylmercaptophenol,10.1021/ja012474j,['[H]Oc1c([H])c([H])c(SC([H])([H])[H])c([H])c1[H]'],['[#6]1(:[#6](:[#6](:[#6](:[#6](:[#6]:1-[#16]-[#6@@](-[H])(-[H])-[H])-[H])-[H])-[#8]-[H])-[H])-[H]'],"['InChI=1S/C7H8OS/c1-9-7-4-2-6(8)3-5-7/h2-5,8H,1H3']",['QASBCTGZKABPKX-UHFFFAOYSA-N']
p-methoxybenzoic_neut->an,4.49,p-methoxybenzoic acid,Lange's handbook of chemistry,['[H]OC(=O)c1c([H])c([H])c(OC([H])([H])[H])c([H])c1[H]'],['[#6]1(:[#6](:[#6](:[#6](:[#6](:[#6]:1-[H])-[#8]-[#6@@](-[H])(-[H])-[H])-[H])-[H])-[#6](=[#8])-[#8]-[H])-[H]'],"['InChI=1S/C8H8O3/c1-11-7-4-2-6(3-5-7)8(9)10/h2-5H,1H3,(H,9,10)']",['ZEYHEAKUIGZSGI-UHFFFAOYSA-N']
p-methoxyphenol_neut->an,10.2,p-methoxyphenol,Lange's handbook of chemistry,['[H]Oc1c([H])c([H])c(OC([H])([H])[H])c([H])c1[H]'],['[#6]1(:[#6](:[#6](:[#6](:[#6](:[#6]:1-[#8]-[#6@@](-[H])(-[H])-[H])-[H])-[H])-[#8]-[H])-[H])-[H]'],"['InChI=1S/C7H8O2/c1-9-7-4-2-6(8)3-5-7/h2-5,8H,1H3']",['NWVVVBRKAWDGAB-UHFFFAOYSA-N']
p-methylbenzoic_neut->an,4.36,p-methylbenzoic acid,Lange's handbook of chemistry,['[H]OC(=O)c1c([H])c([H])c(C([H])([H])[H])c([H])c1[H]'],['[#6]1(:[#6](:[#6](:[#6](:[#6](:[#6]:1-[H])-[#6@@](-[H])(-[H])-[H])-[H])-[H])-[#6](=[#8])-[#8]-[H])-[H]'],"['InChI=1S/C8H8O2/c1-6-2-4-7(5-3-6)8(9)10/h2-5H,1H3,(H,9,10)']",['LPNBBFKOUUSUDB-UHFFFAOYSA-N']
p-nitroaniline_cation->neut,1.01,p-nitroaniline,Lange's handbook of chemistry,['[H]c1c([H])c([N+](=O)[O-])c([H])c([H])c1N([H])[H]'],['[#6]1(:[#6](:[#6](:[#6](:[#6](:[#6]:1-[#7+](=[#8])-[#8-])-[H])-[H])-[#7](-[H])-[H])-[H])-[H]'],"['InChI=1S/C6H6N2O2/c7-5-1-3-6(4-2-5)8(9)10/h1-4H,7H2']",['TYMLOMAKGOJONV-UHFFFAOYSA-N']
p-nitrobenzoic_neut->an,3.44,p-nitro-benzoic acid,Lange's handbook of chemistry,['[H]OC(=O)c1c([H])c([H])c([N+](=O)[O-])c([H])c1[H]'],['[#6]1(:[#6](:[#6](:[#6](:[#6](:[#6]:1-[#7+](=[#8])-[#8-])-[H])-[H])-[#6](=[#8])-[#8]-[H])-[H])-[H]'],"['InChI=1S/C7H5NO4/c9-7(10)5-1-3-6(4-2-5)8(11)12/h1-4H,(H,9,10)']",['OTLNPYWUJOZPPA-UHFFFAOYSA-N']
p-nitrophenol_neut->an,7.15,p-nitrophenol,Lange's handbook of chemistry,['[H]Oc1c([H])c([H])c([N+](=O)[O-])c([H])c1[H]'],['[#6]1(:[#6](:[#6](:[#6](:[#6](:[#6]:1-[#7+](=[#8])-[#8-])-[H])-[H])-[#8]-[H])-[H])-[H]'],"['InChI=1S/C6H5NO3/c8-6-3-1-5(2-4-6)7(9)10/h1-4,8H']",['BTJIUGUIPKRLHP-UHFFFAOYSA-N']
p-phenylphenol_neut->an,9.55,p-phenylphenol,Lange's handbook of chemistry,['[H]Oc1c([H])c([H])c(-c2c([H])c([H])c([H])c([H])c2[H])c([H])c1[H]'],['[#6]1(:[#6](:[#6](:[#6](:[#6](:[#6]:1-[#6]1:[#6](:[#6](:[#6](:[#6](:[#6]:1-[H])-[H])-[H])-[H])-[H])-[H])-[H])-[#8]-[H])-[H])-[H]'],"['InChI=1S/C12H10O/c13-12-8-6-11(7-9-12)10-4-2-1-3-5-10/h1-9,13H']",['YXVFYQXJAXKLAK-UHFFFAOYSA-N']
p-trifluoromethylaniline_cation->neut,2.6,p-trifluoromethylaniline,Lange's handbook of chemistry,['[H]c1c([H])c(C(F)(F)F)c([H])c([H])c1N([H])[H]'],['[#6]1(:[#6](:[#6](:[#6](:[#6](:[#6]:1-[#6@](-[#9])(-[#9])-[#9])-[H])-[H])-[#7](-[H])-[H])-[H])-[H]'],"['InChI=1S/C7H6F3N/c8-7(9,10)5-1-3-6(11)4-2-5/h1-4H,11H2']",['ODGIMMLDVSWADK-UHFFFAOYSA-N']
panisidine_cation->neut,5.36,p-anisidine,Lange's handbook of chemistry,['[H]c1c([H])c(N([H])[H])c([H])c([H])c1OC([H])([H])[H]'],['[#6]1(:[#6](:[#6](:[#6](:[#6](:[#6]:1-[#8]-[#6@](-[H])(-[H])-[H])-[H])-[H])-[#7](-[H])-[H])-[H])-[H]'],"['InChI=1S/C7H9NO/c1-9-7-4-2-6(8)3-5-7/h2-5H,8H2,1H3']",['BHAAPTBBJKJZER-UHFFFAOYSA-N']
pbenzbetaine_cation->neut,3.25,p-benzbetaine,Lange's handbook of chemistry,['[H]c1c([H])c([N+](C([H])([H])[H])(C([H])([H])[H])C([H])([H])[H])c([H])c([H])c1C(=O)[O-]'],['[#8]=[#6](-[#8-])-[#6]1:[#6](:[#6](:[#6](-[#7@+](-[#6@@](-[H])(-[H])-[H])(-[#6@@](-[H])(-[H])-[H])-[#6@@](-[H])(-[H])-[H]):[#6](:[#6]:1-[H])-[H])-[H])-[H]'],"['InChI=1S/C10H13NO2/c1-11(2,3)9-6-4-8(5-7-9)10(12)13/h4-7H,1-3H3']",['XPULRSZBSCQUTI-UHFFFAOYSA-N']
perimidine_cation->neut,6.35,perimidine,http://www.zirchrom.com/organic.htm,['[H]C1=Nc2c([H])c([H])c([H])c3c([H])c([H])c([H])c(c23)N1[H]'],['[#6]1(:[#6]2:[#6](:[#6](:[#6](:[#6]3:[#6]:2:[#6](:[#6](:[#6]:1-[H])-[H])-[#7](-[H])-[#6](-[H])=[#7]-3)-[H])-[H])-[H])-[H]'],"['InChI=1S/C11H8N2/c1-3-8-4-2-6-10-11(8)9(5-1)12-7-13-10/h1-7H,(H,12,13)']",['AAQTWLBJPNLKHT-UHFFFAOYSA-N']
perlolidine_cation->neut,4.01,perlolidine,Lange's handbook of chemistry,['[H]c1c([H])c([H])c2c(nc([H])c3c(=O)n([H])c([H])c([H])c32)c1[H]'],['[#8]=[#6]1:[#7](:[#6](:[#6](:[#6]2:[#6]3:[#6](:[#7]:[#6](:[#6]:2:1)-[H]):[#6](:[#6](:[#6](:[#6]:3-[H])-[H])-[H])-[H])-[H])-[H])-[H]'],"['InChI=1S/C12H8N2O/c15-12-10-7-14-11-4-2-1-3-9(11)8(10)5-6-13-12/h1-7H,(H,13,15)']",['ULIAUQBOGQCMQM-UHFFFAOYSA-N']
perlolidine_neut->an,11.39,perlolidine,Lange's handbook of chemistry,['[H]c1c([H])c([H])c2c(nc([H])c3c(=O)n([H])c([H])c([H])c32)c1[H]'],['[#8]=[#6]1:[#7](:[#6](:[#6](:[#6]2:[#6]3:[#6](:[#7]:[#6](:[#6]:2:1)-[H]):[#6](:[#6](:[#6](:[#6]:3-[H])-[H])-[H])-[H])-[H])-[H])-[H]'],"['InChI=1S/C12H8N2O/c15-12-10-7-14-11-4-2-1-3-9(11)8(10)5-6-13-12/h1-7H,(H,13,15)']",['ULIAUQBOGQCMQM-UHFFFAOYSA-N']
peroxyacetic_neut->an,8.2,peroxyacetic acid,Lange's handbook of chemistry,['[H]OOC(=O)C([H])([H])[H]'],['[#8](-[#8]-[H])-[#6](=[#8])-[#6@@](-[H])(-[H])-[H]'],"['InChI=1S/C2H4O3/c1-2(3)5-4/h4H,1H3']",['KFSLWBXXFJQRDL-UHFFFAOYSA-N']
phealanine_cation->neut,1.83,phenylalanine,Lange's handbook of chemistry,['[H]c1c([H])c([H])c(C([H])([H])[C@@]([H])(C(=O)[O-])[N+]([H])([H])[H])c([H])c1[H]'],['[H]-[#7@](-[#6@@](-[H])(-[#6@](-[H])(-[H])-[#6]1:[#6](:[#6](:[#6](:[#6](:[#6]:1-[H])-[H])-[H])-[H])-[H])-[#6](=[#8])-[#8-])(-[H])-[H]'],"['InChI=1S/C9H11NO2/c10-8(9(11)12)6-7-4-2-1-3-5-7/h1-5,8H,6,10H2,(H,11,12)/t8-/m0/s1']",['COLNVLDHVKWLRT-QMMMGPOBSA-N']
phealanine_neut->an,9.83,phenylalanine,Lange's handbook of chemistry,['[H]c1c([H])c([H])c(C([H])([H])[C@@]([H])(C(=O)[O-])[N+]([H])([H])[H])c([H])c1[H]'],['[H]-[#7@](-[#6@@](-[H])(-[#6@](-[H])(-[H])-[#6]1:[#6](:[#6](:[#6](:[#6](:[#6]:1-[H])-[H])-[H])-[H])-[H])-[#6](=[#8])-[#8-])(-[H])-[H]'],"['InChI=1S/C9H11NO2/c10-8(9(11)12)6-7-4-2-1-3-5-7/h1-5,8H,6,10H2,(H,11,12)/t8-/m0/s1']",['COLNVLDHVKWLRT-QMMMGPOBSA-N']
phenanthridine_cation->neut,4.52,phenanthridine,10.1002/jcc.23068,['[H]c1c([H])c([H])c2c(nc([H])c3c([H])c([H])c([H])c([H])c32)c1[H]'],['[#6]1(:[#6](:[#6]2:[#6](:[#6](:[#6]:1-[H])-[H]):[#6]1:[#6](:[#6](-[H]):[#7]:2):[#6](-[H]):[#6](:[#6](:[#6]:1-[H])-[H])-[H])-[H])-[H]'],['InChI=1S/C13H9N/c1-2-6-11-10(5-1)9-14-13-8-4-3-7-12(11)13/h1-9H'],['RDOWQLZANAYVLL-UHFFFAOYSA-N']
phenazine_cation->neut,1.2,phenazine,Lange's handbook of chemistry,['[H]c1c([H])c([H])c2nc3c([H])c([H])c([H])c([H])c3nc2c1[H]'],['[#7]1:[#6]2:[#6](:[#7]:[#6]3:[#6]:1:[#6](:[#6](:[#6](:[#6]:3-[H])-[H])-[H])-[H]):[#6](:[#6](:[#6](:[#6]:2-[H])-[H])-[H])-[H]'],['InChI=1S/C12H8N2/c1-2-6-10-9(5-1)13-11-7-3-4-8-12(11)14-10/h1-8H'],['PCNDJXKNXGMECE-UHFFFAOYSA-N']
phenol_neut->an,9.99,phenol,Lange's handbook of chemistry,['[H]Oc1c([H])c([H])c([H])c([H])c1[H]'],['[#6]1(:[#6](:[#6](:[#6](:[#6](:[#6]:1-[H])-[H])-[H])-[#8]-[H])-[H])-[H]'],"['InChI=1S/C6H6O/c7-6-4-2-1-3-5-6/h1-5,7H']",['ISWSIDIOOBJBQZ-UHFFFAOYSA-N']
phenoxyacetic_neut->an,3.71,phenoxyacetate,Lange's handbook of chemistry,['[H]OC(=O)C([H])([H])Oc1c([H])c([H])c([H])c([H])c1[H]'],['[#6](=[#8])(-[#8]-[H])-[#6@](-[#8]-[#6]1:[#6](:[#6](:[#6](:[#6](:[#6]:1-[H])-[H])-[H])-[H])-[H])(-[H])-[H]'],"['InChI=1S/C8H8O3/c9-8(10)6-11-7-4-2-1-3-5-7/h1-5H,6H2,(H,9,10)']",['LCPDWSOZIOUXRV-UHFFFAOYSA-N']
phenylacetic_neut->an,4.31,phenylacetic,Lange's handbook of chemistry,['[H]OC(=O)C([H])([H])c1c([H])c([H])c([H])c([H])c1[H]'],['[#6]1(:[#6](:[#6](:[#6](:[#6](:[#6]:1-[H])-[H])-[H])-[#6@](-[H])(-[H])-[#6](=[#8])-[#8]-[H])-[H])-[H]'],"['InChI=1S/C8H8O2/c9-8(10)6-7-4-2-1-3-5-7/h1-5H,6H2,(H,9,10)']",['WLJVXDMOQOGPHL-UHFFFAOYSA-N']
phenylhidrazine_cation->neut,5.2,phenylhydrazine,Lange's handbook of chemistry,['[H]c1c([H])c([H])c(N([H])N([H])[H])c([H])c1[H]'],['[#7](-[#7](-[H])-[H])(-[#6]1:[#6](:[#6](:[#6](:[#6](:[#6]:1-[H])-[H])-[H])-[H])-[H])-[H]'],"['InChI=1S/C6H8N2/c7-8-6-4-2-1-3-5-6/h1-5,8H,7H2']",['HKOOXMFOFWEVGF-UHFFFAOYSA-N']
phenylmalonic_an->2an,5.59,phenylmalonic acid,doi.org/10.1021/j100788a502,['[H]OC(=O)C([H])(C(=O)O[H])c1c([H])c([H])c([H])c([H])c1[H]'],['[#8](-[#6](=[#8])-[#6@@](-[#6]1:[#6](:[#6](:[#6](:[#6](:[#6]:1-[H])-[H])-[H])-[H])-[H])(-[#6](-[#8]-[H])=[#8])-[H])-[H]'],"['InChI=1S/C9H8O4/c10-8(11)7(9(12)13)6-4-2-1-3-5-6/h1-5,7H,(H,10,11)(H,12,13)']",['WWYDYZMNFQIYPT-UHFFFAOYSA-N']
phenylmalonic_neut->an,2.52,phenylmalonic acid,doi.org/10.1021/j100788a502,['[H]OC(=O)C([H])(C(=O)O[H])c1c([H])c([H])c([H])c([H])c1[H]'],['[#8](-[#6](=[#8])-[#6@@](-[#6]1:[#6](:[#6](:[#6](:[#6](:[#6]:1-[H])-[H])-[H])-[H])-[H])(-[#6](-[#8]-[H])=[#8])-[H])-[H]'],"['InChI=1S/C9H8O4/c10-8(11)7(9(12)13)6-4-2-1-3-5-6/h1-5,7H,(H,10,11)(H,12,13)']",['WWYDYZMNFQIYPT-UHFFFAOYSA-N']
phenylphosphinic_neut->an,2.1,phenylphosphonic acid,Lange's handbook of chemistry,['[H+].[H]OP([O-])c1c([H])c([H])c([H])c([H])c1[H]'],['[#15](-[#8]-[H])(-[#8-])-[#6]1:[#6](:[#6](:[#6](:[#6](:[#6]:1-[H])-[H])-[H])-[H])-[H].[H+]'],"['InChI=1S/C6H6O2P/c7-9(8)6-4-2-1-3-5-6/h1-5,7H/q-1/p+1']",['IRFRBCPOOKUZHZ-UHFFFAOYSA-O']
phosphoramidic_an->2an,8.25,phosphoramidic acid,pubs.acs.org/doi/epdf/10.1021/ja01092a035,['[H]OP(=O)(O[H])N([H])[H]'],['[#8](-[#15@@](-[#8]-[H])(=[#8])-[#7](-[H])-[H])-[H]'],"['InChI=1S/H4NO3P/c1-5(2,3)4/h(H4,1,2,3,4)']",['PTMHPRAIXMAOOB-UHFFFAOYSA-N']
phosphoramidic_neut->an,2.83,phosphoramidic acid,pubs.acs.org/doi/epdf/10.1021/ja01092a035,['[H]OP(=O)(O[H])N([H])[H]'],['[#8](-[#15@@](-[#8]-[H])(=[#8])-[#7](-[H])-[H])-[H]'],"['InChI=1S/H4NO3P/c1-5(2,3)4/h(H4,1,2,3,4)']",['PTMHPRAIXMAOOB-UHFFFAOYSA-N']
phtalazine_cation->neut,3.47,phthalazine,Lange's handbook of chemistry,['[H]c1c([H])c([H])c2c([H])nnc([H])c2c1[H]'],['[#6]1(:[#6](:[#6]2:[#6](:[#6](:[#6]:1-[H])-[H]):[#6](-[H]):[#7]:[#7]:[#6]:2-[H])-[H])-[H]'],['InChI=1S/C8H6N2/c1-2-4-8-6-10-9-5-7(8)3-1/h1-6H'],['LFSXCDWNBUNEEM-UHFFFAOYSA-N']
phthalimide_neut->an,8.3,phtalimide,"Budavari S; The Merck Index - Encyclopedia of Chemicals, Drugs, and Biologicals. Rahway, NJ: Merck and Co Inc pg 1170 (1989)",['[H]c1c([H])c([H])c2c(c1[H])C(=O)N([H])C2=O'],['[#8]=[#6]1-[#7](-[#6](=[#8])-[#6]2:[#6]-1:[#6](:[#6](:[#6](:[#6]:2-[H])-[H])-[H])-[H])-[H]'],"['InChI=1S/C8H5NO2/c10-7-5-3-1-2-4-6(5)8(11)9-7/h1-4H,(H,9,10,11)']",['XKJCHHZQLQNZHY-UHFFFAOYSA-N']
physostigmine_cation->neut,7.88,physostigmine,Lange's handbook of chemistry,['[H]c1c([H])c2c(c([H])c1OC(=O)N([H])C([H])([H])[H])[C@]1(C([H])([H])[H])C([H])([H])C([H])([H])N(C([H])([H])[H])[C@]1([H])N2C([H])([H])[H]'],['[#8](-[#6]1:[#6](:[#6]2-[#6@]3(-[#6@](-[#7](-[#6@](-[#6@@]-3(-[H])-[H])(-[H])-[H])-[#6@](-[H])(-[H])-[H])(-[#7](-[#6]:2:[#6](:[#6]:1-[H])-[H])-[#6@](-[H])(-[H])-[H])-[H])-[#6@@](-[H])(-[H])-[H])-[H])-[#6](=[#8])-[#7](-[#6@](-[H])(-[H])-[H])-[H]'],"['InChI=1S/C15H21N3O2/c1-15-7-8-17(3)13(15)18(4)12-6-5-10(9-11(12)15)20-14(19)16-2/h5-6,9,13H,7-8H2,1-4H3,(H,16,19)/t13-,15+/m1/s1']",['PIJVFDBKTWXHHD-HIFRSBDPSA-N']
picolinic_cation->neut,1.01,picolinic acid,profiles of drug substances excipiends and related (A),"['[H]c1c([H])c([H])[n+]([H])c(C(=O)[O-])c1[H]', '[H]OC(=O)c1nc([H])c([H])c([H])c1[H]']","['[#6]1(:[#6](-[#6](=[#8])-[#8-]):[#7+](:[#6](:[#6](:[#6]:1-[H])-[H])-[H])-[H])-[H]', '[#6]1(:[#6](:[#6](:[#6](:[#7]:[#6]:1-[#6](=[#8])-[#8]-[H])-[H])-[H])-[H])-[H]']","['InChI=1S/C6H5NO2/c8-6(9)5-3-1-2-4-7-5/h1-4H,(H,8,9)']",['SIOXPEMLGUPBBT-UHFFFAOYSA-N']
picolinic_neut->an,5.32,picolinic acid,profiles of drug substances excipiends and related (A),"['[H]c1c([H])c([H])[n+]([H])c(C(=O)[O-])c1[H]', '[H]OC(=O)c1nc([H])c([H])c([H])c1[H]']","['[#6]1(:[#6](-[#6](=[#8])-[#8-]):[#7+](:[#6](:[#6](:[#6]:1-[H])-[H])-[H])-[H])-[H]', '[#6]1(:[#6](:[#6](:[#6](:[#7]:[#6]:1-[#6](=[#8])-[#8]-[H])-[H])-[H])-[H])-[H]']","['InChI=1S/C6H5NO2/c8-6(9)5-3-1-2-4-7-5/h1-4H,(H,8,9)']",['SIOXPEMLGUPBBT-UHFFFAOYSA-N']
picric_neut->an,0.42,picric acid,Lange's handbook of chemistry,['[H]Oc1c([N+](=O)[O-])c([H])c([N+](=O)[O-])c([H])c1[N+](=O)[O-]'],['[#6]1(:[#6](:[#6](:[#6](:[#6](:[#6]:1-[#8]-[H])-[#7+](=[#8])-[#8-])-[H])-[#7+](=[#8])-[#8-])-[H])-[#7+](=[#8])-[#8-]'],"['InChI=1S/C6H3N3O7/c10-6-4(8(13)14)1-3(7(11)12)2-5(6)9(15)16/h1-2,10H']",['OXNIZHLAWKMVMX-UHFFFAOYSA-N']
piperazine_2cation->cation,5.33,piperazine,profiles of drug substances excipiends and related (R),['[H]N1C([H])([H])C([H])([H])N([H])C([H])([H])C1([H])[H]'],['[H]-[#6@@]1(-[#6@@](-[H])(-[H])-[#7](-[#6@@](-[#6@](-[H])(-[H])-[#7]-1-[H])(-[H])-[H])-[H])-[H]'],"['InChI=1S/C4H10N2/c1-2-6-4-3-5-1/h5-6H,1-4H2']",['GLUUGHFHXGJENI-UHFFFAOYSA-N']
piperazine_cation->neut,9.73,piperazine,profiles of drug substances excipiends and related (R),['[H]N1C([H])([H])C([H])([H])N([H])C([H])([H])C1([H])[H]'],['[H]-[#6@@]1(-[#6@@](-[H])(-[H])-[#7](-[#6@@](-[#6@](-[H])(-[H])-[#7]-1-[H])(-[H])-[H])-[H])-[H]'],"['InChI=1S/C4H10N2/c1-2-6-4-3-5-1/h5-6H,1-4H2']",['GLUUGHFHXGJENI-UHFFFAOYSA-N']
piperidine_cation->neut,11.12,piperidine,profiles of drug substances excipiends and related (R),['[H]N1C([H])([H])C([H])([H])C([H])([H])C([H])([H])C1([H])[H]'],['[H]-[#6@@]1(-[#6@@](-[#6@@](-[#6@@](-[#6@](-[H])(-[H])-[#7]-1-[H])(-[H])-[H])(-[H])-[H])(-[H])-[H])-[H]'],"['InChI=1S/C5H11N/c1-2-4-6-5-3-1/h6H,1-5H2']",['NQRYJNQNLNOLGT-UHFFFAOYSA-N']
pphenoxybenzoic_neut->an,4.52,p-phenoxybenzoic acid,Lange's handbook of chemistry,['[H]OC(=O)c1c([H])c([H])c(Oc2c([H])c([H])c([H])c([H])c2[H])c([H])c1[H]'],['[#6]1(:[#6](:[#6](:[#6](:[#6](:[#6]:1-[#8]-[#6]1:[#6](:[#6](:[#6](:[#6](:[#6]:1-[H])-[H])-[H])-[H])-[H])-[H])-[H])-[#6](=[#8])-[#8]-[H])-[H])-[H]'],"['InChI=1S/C13H10O3/c14-13(15)10-6-8-12(9-7-10)16-11-4-2-1-3-5-11/h1-9H,(H,14,15)']",['RYAQFHLUEMJOMF-UHFFFAOYSA-N']