compn,pKa,correct name,reference,smiles,smarts,inchi,inchiKey
4tertbutylphenylphosphonic_neut->an,1.8,(4-tertbutylphenyl)phosphonic acid,doi.org/10.1016/j.jpba.2017.05.038,['[H]OP(=O)(O[H])c1c([H])c([H])c(C(C([H])([H])[H])(C([H])([H])[H])C([H])([H])[H])c([H])c1[H]'],['[#8](-[#15@](=[#8])(-[#8]-[H])-[#6]1:[#6](:[#6](:[#6](:[#6](:[#6]:1-[H])-[H])-[#6@](-[#6@@](-[H])(-[H])-[H])(-[#6@@](-[H])(-[H])-[H])-[#6@@](-[H])(-[H])-[H])-[H])-[H])-[H]'],"['InChI=1S/C10H15O3P/c1-10(2,3)8-4-6-9(7-5-8)14(11,12)13/h4-7H,1-3H3,(H2,11,12,13)']",['SYOFLEWUZXUEKC-UHFFFAOYSA-N']
4tertbutylphenylphosphonic_an->2an,7.05,(4-tertbutylphenyl)phosphonic acid,doi.org/10.1016/j.jpba.2017.05.038,['[H]OP(=O)(O[H])c1c([H])c([H])c(C(C([H])([H])[H])(C([H])([H])[H])C([H])([H])[H])c([H])c1[H]'],['[#8](-[#15@](=[#8])(-[#8]-[H])-[#6]1:[#6](:[#6](:[#6](:[#6](:[#6]:1-[H])-[H])-[#6@](-[#6@@](-[H])(-[H])-[H])(-[#6@@](-[H])(-[H])-[H])-[#6@@](-[H])(-[H])-[H])-[H])-[H])-[H]'],"['InChI=1S/C10H15O3P/c1-10(2,3)8-4-6-9(7-5-8)14(11,12)13/h4-7H,1-3H3,(H2,11,12,13)']",['SYOFLEWUZXUEKC-UHFFFAOYSA-N']
pbinphenylphosphonic_neut->an,1.64,"[1,1'-biphenyl]-4-ylphosphonic acid",doi.org/10.1016/j.jpba.2017.05.038,['[H]OP(=O)(O[H])c1c([H])c([H])c(-c2c([H])c([H])c([H])c([H])c2[H])c([H])c1[H]'],['[#8](-[#15@](=[#8])(-[#8]-[H])-[#6]1:[#6](:[#6](:[#6](:[#6](:[#6]:1-[H])-[H])-[#6]1:[#6](:[#6](:[#6](:[#6](:[#6]:1-[H])-[H])-[H])-[H])-[H])-[H])-[H])-[H]'],"['InChI=1S/C12H11O3P/c13-16(14,15)12-8-6-11(7-9-12)10-4-2-1-3-5-10/h1-9H,(H2,13,14,15)']",['YMPNWCQTWSCICD-UHFFFAOYSA-N']
pbinphenylphosphonic_an->2an,6.93,"[1,1'-biphenyl]-4-ylphosphonic acid",doi.org/10.1016/j.jpba.2017.05.038,['[H]OP(=O)(O[H])c1c([H])c([H])c(-c2c([H])c([H])c([H])c([H])c2[H])c([H])c1[H]'],['[#8](-[#15@](=[#8])(-[#8]-[H])-[#6]1:[#6](:[#6](:[#6](:[#6](:[#6]:1-[H])-[H])-[#6]1:[#6](:[#6](:[#6](:[#6](:[#6]:1-[H])-[H])-[H])-[H])-[H])-[H])-[H])-[H]'],"['InChI=1S/C12H11O3P/c13-16(14,15)12-8-6-11(7-9-12)10-4-2-1-3-5-10/h1-9H,(H2,13,14,15)']",['YMPNWCQTWSCICD-UHFFFAOYSA-N']
mbinphenylphosphonic_neut->an,1.61,"[1,1'-biphenyl]-3-ylphosphonic acid",doi.org/10.1016/j.jpba.2017.05.038,['[H]OP(=O)(O[H])c1c([H])c([H])c([H])c(-c2c([H])c([H])c([H])c([H])c2[H])c1[H]'],['[#8](-[#15@](=[#8])(-[#8]-[H])-[#6]1:[#6](:[#6](:[#6](:[#6](:[#6]:1-[H])-[#6]1:[#6](:[#6](:[#6](:[#6](:[#6]:1-[H])-[H])-[H])-[H])-[H])-[H])-[H])-[H])-[H]'],"['InChI=1S/C12H11O3P/c13-16(14,15)12-8-4-7-11(9-12)10-5-2-1-3-6-10/h1-9H,(H2,13,14,15)']",['FZDQMOQKXFXGQV-UHFFFAOYSA-N']
mbinphenylphosphonic_an->2an,6.89,"[1,1'-biphenyl]-3-ylphosphonic acid",doi.org/10.1016/j.jpba.2017.05.038,['[H]OP(=O)(O[H])c1c([H])c([H])c([H])c(-c2c([H])c([H])c([H])c([H])c2[H])c1[H]'],['[#8](-[#15@](=[#8])(-[#8]-[H])-[#6]1:[#6](:[#6](:[#6](:[#6](:[#6]:1-[H])-[#6]1:[#6](:[#6](:[#6](:[#6](:[#6]:1-[H])-[H])-[H])-[H])-[H])-[H])-[H])-[H])-[H]'],"['InChI=1S/C12H11O3P/c13-16(14,15)12-8-4-7-11(9-12)10-5-2-1-3-6-10/h1-9H,(H2,13,14,15)']",['FZDQMOQKXFXGQV-UHFFFAOYSA-N']
mesitylphosphonic_neut->an,2.53,mesitylphosphonic acid,http://dx.doi.org/10.1139/v87-290 ,['[H]OP(=O)(O[H])c1c(C([H])([H])[H])c([H])c(C([H])([H])[H])c([H])c1C([H])([H])[H]'],['[#8](-[#15@](=[#8])(-[#8]-[H])-[#6]1:[#6](:[#6](:[#6](:[#6](:[#6]:1-[#6@@](-[H])(-[H])-[H])-[H])-[#6@@](-[H])(-[H])-[H])-[H])-[#6@@](-[H])(-[H])-[H])-[H]'],"['InChI=1S/C9H13O3P/c1-6-4-7(2)9(8(3)5-6)13(10,11)12/h4-5H,1-3H3,(H2,10,11,12)']",['PKYULUXCBKOTAB-UHFFFAOYSA-N']
mesitylphosphonic_an->2an,8.82,mesitylphosphonic acid,http://dx.doi.org/10.1139/v87-290 ,['[H]OP(=O)(O[H])c1c(C([H])([H])[H])c([H])c(C([H])([H])[H])c([H])c1C([H])([H])[H]'],['[#8](-[#15@](=[#8])(-[#8]-[H])-[#6]1:[#6](:[#6](:[#6](:[#6](:[#6]:1-[#6@@](-[H])(-[H])-[H])-[H])-[#6@@](-[H])(-[H])-[H])-[H])-[#6@@](-[H])(-[H])-[H])-[H]'],"['InChI=1S/C9H13O3P/c1-6-4-7(2)9(8(3)5-6)13(10,11)12/h4-5H,1-3H3,(H2,10,11,12)']",['PKYULUXCBKOTAB-UHFFFAOYSA-N']
24dimethylphenylphosphonic_neut->an,2.17,"(2,4-dimethylphenyl)phosphonic acid",http://dx.doi.org/10.1139/v87-290 ,['[H]OP(=O)(O[H])c1c([H])c([H])c(C([H])([H])[H])c([H])c1C([H])([H])[H]'],['[#8](-[#15@](=[#8])(-[#8]-[H])-[#6]1:[#6](:[#6](:[#6](:[#6](:[#6]:1-[#6@@](-[H])(-[H])-[H])-[H])-[#6@@](-[H])(-[H])-[H])-[H])-[H])-[H]'],"['InChI=1S/C8H11O3P/c1-6-3-4-8(7(2)5-6)12(9,10)11/h3-5H,1-2H3,(H2,9,10,11)']",['DLXVLBCCGRQAAA-UHFFFAOYSA-N']
24dimethylphenylphosphonic_an->an,8.07,"(2,4-dimethylphenyl)phosphonic acid",http://dx.doi.org/10.1139/v87-290 ,['[H]OP(=O)(O[H])c1c([H])c([H])c(C([H])([H])[H])c([H])c1C([H])([H])[H]'],['[#8](-[#15@](=[#8])(-[#8]-[H])-[#6]1:[#6](:[#6](:[#6](:[#6](:[#6]:1-[#6@@](-[H])(-[H])-[H])-[H])-[#6@@](-[H])(-[H])-[H])-[H])-[H])-[H]'],"['InChI=1S/C8H11O3P/c1-6-3-4-8(7(2)5-6)12(9,10)11/h3-5H,1-2H3,(H2,9,10,11)']",['DLXVLBCCGRQAAA-UHFFFAOYSA-N']
25dimethylphenylphosphonic_neut->an,2.1,"(2,5-dimethylphenyl)phosphonic acid",http://dx.doi.org/10.1139/v87-290 ,['[H]OP(=O)(O[H])c1c([H])c(C([H])([H])[H])c([H])c([H])c1C([H])([H])[H]'],['[#8](-[#15@](=[#8])(-[#8]-[H])-[#6]1:[#6](:[#6](:[#6](:[#6](:[#6]:1-[#6@@](-[H])(-[H])-[H])-[H])-[H])-[#6@@](-[H])(-[H])-[H])-[H])-[H]'],"['InChI=1S/C8H11O3P/c1-6-3-4-7(2)8(5-6)12(9,10)11/h3-5H,1-2H3,(H2,9,10,11)']",['GJTJNLGUQDZCOA-UHFFFAOYSA-N']
25dimethylphenylphosphonic_an->2an,8.1,"(2,5-dimethylphenyl)phosphonic acid",http://dx.doi.org/10.1139/v87-290 ,['[H]OP(=O)(O[H])c1c([H])c(C([H])([H])[H])c([H])c([H])c1C([H])([H])[H]'],['[#8](-[#15@](=[#8])(-[#8]-[H])-[#6]1:[#6](:[#6](:[#6](:[#6](:[#6]:1-[#6@@](-[H])(-[H])-[H])-[H])-[H])-[#6@@](-[H])(-[H])-[H])-[H])-[H]'],"['InChI=1S/C8H11O3P/c1-6-3-4-7(2)8(5-6)12(9,10)11/h3-5H,1-2H3,(H2,9,10,11)']",['GJTJNLGUQDZCOA-UHFFFAOYSA-N']
23dimethylphenylphosphonic_neut->an,2.17,"(2,3-dimethylphenyl)phosphonic acid",http://dx.doi.org/10.1139/v87-290 ,['[H]OP(=O)(O[H])c1c([H])c([H])c([H])c(C([H])([H])[H])c1C([H])([H])[H]'],['[#8](-[#15@](=[#8])(-[#8]-[H])-[#6]1:[#6](:[#6](:[#6](:[#6](:[#6]:1-[#6@@](-[H])(-[H])-[H])-[#6@@](-[H])(-[H])-[H])-[H])-[H])-[H])-[H]'],"['InChI=1S/C8H11O3P/c1-6-4-3-5-8(7(6)2)12(9,10)11/h3-5H,1-2H3,(H2,9,10,11)']",['AOYVABWPDDHCDE-UHFFFAOYSA-N']
23dimethylphenylphosphonic_an->2an,8.07,"(2,3-dimethylphenyl)phosphonic acid",http://dx.doi.org/10.1139/v87-290 ,['[H]OP(=O)(O[H])c1c([H])c([H])c([H])c(C([H])([H])[H])c1C([H])([H])[H]'],['[#8](-[#15@](=[#8])(-[#8]-[H])-[#6]1:[#6](:[#6](:[#6](:[#6](:[#6]:1-[#6@@](-[H])(-[H])-[H])-[#6@@](-[H])(-[H])-[H])-[H])-[H])-[H])-[H]'],"['InChI=1S/C8H11O3P/c1-6-4-3-5-8(7(6)2)12(9,10)11/h3-5H,1-2H3,(H2,9,10,11)']",['AOYVABWPDDHCDE-UHFFFAOYSA-N']
4isopropylphenylphosphonic_neut->an,2.13,(4-isopropylphenyl)phosphonic acid,http://dx.doi.org/10.1139/v87-290 ,['[H]OP(=O)(O[H])c1c([H])c([H])c(C([H])(C([H])([H])[H])C([H])([H])[H])c([H])c1[H]'],['[#8](-[#15@](=[#8])(-[#8]-[H])-[#6]1:[#6](:[#6](:[#6](:[#6](:[#6]:1-[H])-[H])-[#6@](-[H])(-[#6@@](-[H])(-[H])-[H])-[#6@@](-[H])(-[H])-[H])-[H])-[H])-[H]'],"['InChI=1S/C9H13O3P/c1-7(2)8-3-5-9(6-4-8)13(10,11)12/h3-7H,1-2H3,(H2,10,11,12)']",['WTVNRJZKWMXPJC-UHFFFAOYSA-N']
4isopropylphenylphosphonic_an->2an,8.18,(4-isopropylphenyl)phosphonic acid,http://dx.doi.org/10.1139/v87-290 ,['[H]OP(=O)(O[H])c1c([H])c([H])c(C([H])(C([H])([H])[H])C([H])([H])[H])c([H])c1[H]'],['[#8](-[#15@](=[#8])(-[#8]-[H])-[#6]1:[#6](:[#6](:[#6](:[#6](:[#6]:1-[H])-[H])-[#6@](-[H])(-[#6@@](-[H])(-[H])-[H])-[#6@@](-[H])(-[H])-[H])-[H])-[H])-[H]'],"['InChI=1S/C9H13O3P/c1-7(2)8-3-5-9(6-4-8)13(10,11)12/h3-7H,1-2H3,(H2,10,11,12)']",['WTVNRJZKWMXPJC-UHFFFAOYSA-N']
1naphtylphosphonic_an->2an,7.64,a-naphtyl-phosphonic acid,http://dx.doi.org/10.1139/v87-290 ,['[H]O[P@](=O)([O-])c1c([H])c([H])c([H])c2c([H])c([H])c([H])c([H])c12'],['[#8]=[#15@](-[#8-])(-[#8]-[H])-[#6]1:[#6]2:[#6](:[#6](:[#6](:[#6](:[#6]:2:[#6](:[#6](:[#6]:1-[H])-[H])-[H])-[H])-[H])-[H])-[H]'],"['InChI=1S/C10H9O3P/c11-14(12,13)10-7-3-5-8-4-1-2-6-9(8)10/h1-7H,(H2,11,12,13)/p-1']",['YOOYVODKUBZAPO-UHFFFAOYSA-M']
2naphtylphosphonic_an->2an,7.42,b-naphtyl-phosphonic acid,http://dx.doi.org/10.1139/v87-290 ,['[H]O[P@](=O)([O-])c1c([H])c([H])c2c([H])c([H])c([H])c([H])c2c1[H]'],['[#8]=[#15@](-[#8-])(-[#8]-[H])-[#6]1:[#6](:[#6]2:[#6](:[#6](:[#6](:[#6](:[#6]:2:[#6](:[#6]:1-[H])-[H])-[H])-[H])-[H])-[H])-[H]'],"['InChI=1S/C10H9O3P/c11-14(12,13)10-6-5-8-3-1-2-4-9(8)7-10/h1-7H,(H2,11,12,13)/p-1']",['XVMDPIMYUBISCQ-UHFFFAOYSA-M']
35dimethylphenylphosphonic_neut->an,2.01,"(3,5-dimethylphenyl)phosphonic acid",http://dx.doi.org/10.1139/v87-290 ,['[H]OP(=O)(O[H])c1c([H])c(C([H])([H])[H])c([H])c(C([H])([H])[H])c1[H]'],['[#8](-[#15@](=[#8])(-[#8]-[H])-[#6]1:[#6](:[#6](:[#6](:[#6](:[#6]:1-[H])-[#6@@](-[H])(-[H])-[H])-[H])-[#6@@](-[H])(-[H])-[H])-[H])-[H]'],"['InChI=1S/C8H11O3P/c1-6-3-7(2)5-8(4-6)12(9,10)11/h3-5H,1-2H3,(H2,9,10,11)']",['PXVDXSZVEZXVMG-UHFFFAOYSA-N']
35dimethylphenylphosphonic_an->2an,7.73,"(3,5-dimethylphenyl)phosphonic acid",http://dx.doi.org/10.1139/v87-290 ,['[H]OP(=O)(O[H])c1c([H])c(C([H])([H])[H])c([H])c(C([H])([H])[H])c1[H]'],['[#8](-[#15@](=[#8])(-[#8]-[H])-[#6]1:[#6](:[#6](:[#6](:[#6](:[#6]:1-[H])-[#6@@](-[H])(-[H])-[H])-[H])-[#6@@](-[H])(-[H])-[H])-[H])-[H]'],"['InChI=1S/C8H11O3P/c1-6-3-7(2)5-8(4-6)12(9,10)11/h3-5H,1-2H3,(H2,9,10,11)']",['PXVDXSZVEZXVMG-UHFFFAOYSA-N']
34dimethylphenylphosphonic_neut->an,2.04,"(3,4-dimethylphenyl)phosphonic acid",http://dx.doi.org/10.1139/v87-290 ,['[H]OP(=O)(O[H])c1c([H])c([H])c(C([H])([H])[H])c(C([H])([H])[H])c1[H]'],['[#8](-[#15@](=[#8])(-[#8]-[H])-[#6]1:[#6](:[#6](:[#6](:[#6](:[#6]:1-[H])-[H])-[#6@@](-[H])(-[H])-[H])-[#6@@](-[H])(-[H])-[H])-[H])-[H]'],"['InChI=1S/C8H11O3P/c1-6-3-4-8(5-7(6)2)12(9,10)11/h3-5H,1-2H3,(H2,9,10,11)']",['URNJCFQYNKGNLX-UHFFFAOYSA-N']
34dimethylphenylphosphonic_an->2an,7.76,"(3,4-dimethylphenyl)phosphonic acid",http://dx.doi.org/10.1139/v87-290 ,['[H]OP(=O)(O[H])c1c([H])c([H])c(C([H])([H])[H])c(C([H])([H])[H])c1[H]'],['[#8](-[#15@](=[#8])(-[#8]-[H])-[#6]1:[#6](:[#6](:[#6](:[#6](:[#6]:1-[H])-[H])-[#6@@](-[H])(-[H])-[H])-[#6@@](-[H])(-[H])-[H])-[H])-[H]'],"['InChI=1S/C8H11O3P/c1-6-3-4-8(5-7(6)2)12(9,10)11/h3-5H,1-2H3,(H2,9,10,11)']",['URNJCFQYNKGNLX-UHFFFAOYSA-N']
2ethylphenylphosphonic_neut->an,2.11,(2-ethylphenyl)phosphonic acid,http://dx.doi.org/10.1139/v87-290 ,['[H]OP(=O)(O[H])c1c([H])c([H])c([H])c([H])c1C([H])([H])C([H])([H])[H]'],['[#8](-[#15@](=[#8])(-[#8]-[H])-[#6]1:[#6](:[#6](:[#6](:[#6](:[#6]:1-[#6@@](-[H])(-[H])-[#6@@](-[H])(-[H])-[H])-[H])-[H])-[H])-[H])-[H]'],"['InChI=1S/C8H11O3P/c1-2-7-5-3-4-6-8(7)12(9,10)11/h3-6H,2H2,1H3,(H2,9,10,11)']",['HJONNNXQWUWENQ-UHFFFAOYSA-N']
2ethylphenylphosphonic_an->2an,8.09,(2-ethylphenyl)phosphonic acid,http://dx.doi.org/10.1139/v87-290 ,['[H]OP(=O)(O[H])c1c([H])c([H])c([H])c([H])c1C([H])([H])C([H])([H])[H]'],['[#8](-[#15@](=[#8])(-[#8]-[H])-[#6]1:[#6](:[#6](:[#6](:[#6](:[#6]:1-[#6@@](-[H])(-[H])-[#6@@](-[H])(-[H])-[H])-[H])-[H])-[H])-[H])-[H]'],"['InChI=1S/C8H11O3P/c1-2-7-5-3-4-6-8(7)12(9,10)11/h3-6H,2H2,1H3,(H2,9,10,11)']",['HJONNNXQWUWENQ-UHFFFAOYSA-N']
isopropylphosphonic_neut->an,2.66,isopropyl-phosphonic acid,"Bull.Chem.Soc.Jpn. 65, 2543-2545, 1992",['[H]OP(=O)(O[H])C([H])(C([H])([H])[H])C([H])([H])[H]'],['[#8](-[#15@](=[#8])(-[#8]-[H])-[#6@](-[H])(-[#6@@](-[H])(-[H])-[H])-[#6@@](-[H])(-[H])-[H])-[H]'],"['InChI=1S/C3H9O3P/c1-3(2)7(4,5)6/h3H,1-2H3,(H2,4,5,6)']",['ATLPLEZDTSBZQG-UHFFFAOYSA-N']
isopropylphosphonic_an->2an,8.7,isopropyl-phosphonic acid,"Bull.Chem.Soc.Jpn. 65, 2543-2545, 1992",['[H]OP(=O)(O[H])C([H])(C([H])([H])[H])C([H])([H])[H]'],['[#8](-[#15@](=[#8])(-[#8]-[H])-[#6@](-[H])(-[#6@@](-[H])(-[H])-[H])-[#6@@](-[H])(-[H])-[H])-[H]'],"['InChI=1S/C3H9O3P/c1-3(2)7(4,5)6/h3H,1-2H3,(H2,4,5,6)']",['ATLPLEZDTSBZQG-UHFFFAOYSA-N']
2phosphonoacetic_2an->3an,8.69,2-phosphonoacetic acid,"Bull.Chem.Soc.Jpn. 65, 2543-2545, 1992",['[H]O[P@](=O)([O-])C([H])([H])C(=O)[O-]'],['[#8](-[#15@](=[#8])(-[#8-])-[#6@@](-[H])(-[H])-[#6](=[#8])-[#8-])-[H]'],"['InChI=1S/C2H5O5P/c3-2(4)1-8(5,6)7/h1H2,(H,3,4)(H2,5,6,7)/p-2']",['XUYJLQHKOGNDPB-UHFFFAOYSA-L']
3methoxyphenylphosphonic_neut->an,1.74,(3-methoxyphenyl)phosphonic acid,https://cdnsciencepub.com/doi/pdf/10.1139/v87-290,['[H]OP(=O)(O[H])c1c([H])c([H])c([H])c(OC([H])([H])[H])c1[H]'],['[#8](-[#15@](-[#8]-[H])(=[#8])-[#6]1:[#6](:[#6](:[#6](:[#6](:[#6]:1-[H])-[#8]-[#6@@](-[H])(-[H])-[H])-[H])-[H])-[H])-[H]'],"['InChI=1S/C7H9O4P/c1-11-6-3-2-4-7(5-6)12(8,9)10/h2-5H,1H3,(H2,8,9,10)']",['HPQZCEPKZPFYLA-UHFFFAOYSA-N']
3methoxyphenylphosphonic_an->2an,7.42,(3-methoxyphenyl)phosphonic acid,https://cdnsciencepub.com/doi/pdf/10.1139/v87-290,['[H]OP(=O)(O[H])c1c([H])c([H])c([H])c(OC([H])([H])[H])c1[H]'],['[#8](-[#15@](-[#8]-[H])(=[#8])-[#6]1:[#6](:[#6](:[#6](:[#6](:[#6]:1-[H])-[#8]-[#6@@](-[H])(-[H])-[H])-[H])-[H])-[H])-[H]'],"['InChI=1S/C7H9O4P/c1-11-6-3-2-4-7(5-6)12(8,9)10/h2-5H,1H3,(H2,8,9,10)']",['HPQZCEPKZPFYLA-UHFFFAOYSA-N']