compn,pKa,correct name,reference,smiles,smarts,inchi,inchiKey
5chloropehnyl13cyclohexanedione_neut->an,4.68,"5-chlorophenyl-1,3-cyclohexanedione",doi.org/10.1038/s42004-020-0264-7,"['[H]OC1=C([H])C(=O)C([H])([H])[C@@]([H])(c2c([H])c([H])c(Cl)c([H])c2[H])C1([H])[H]', '[H]c1c([H])c(C2([H])C([H])([H])C(=O)C([H])([H])C(=O)C2([H])[H])c([H])c([H])c1Cl']","['[#8](-[#6]1-[#6@@](-[#6@](-[#6@](-[#6](=[#8])-[#6]=1-[H])(-[H])-[H])(-[H])-[#6]1:[#6](:[#6](:[#6](:[#6](:[#6]:1-[H])-[H])-[#17])-[H])-[H])(-[H])-[H])-[H]', '[#8]=[#6]1-[#6@@](-[#6@](-[#6@](-[#6](=[#8])-[#6@]-1(-[H])-[H])(-[H])-[H])(-[H])-[#6]1:[#6](:[#6](:[#6](:[#6](:[#6]:1-[H])-[H])-[#17])-[H])-[H])(-[H])-[H]']","['InChI=1S/C12H11ClO2/c13-10-3-1-8(2-4-10)9-5-11(14)7-12(15)6-9/h1-4,7,9,14H,5-6H2/t9-/m0/s1', 'InChI=1S/C12H11ClO2/c13-10-3-1-8(2-4-10)9-5-11(14)7-12(15)6-9/h1-4,9H,5-7H2']","['DLZDPGBOQGNSNO-VIFPVBQESA-N', 'MAFYKXZPGMHTIA-UHFFFAOYSA-N']"
5fluoropehnyl13cyclohexanedione_neut->an,4.76,"5-fluorophenyl-1,3-cyclohexanedione",doi.org/10.1038/s42004-020-0264-7,"['[H]c1c([H])c(C2([H])C([H])([H])C(=O)C([H])([H])C(=O)C2([H])[H])c([H])c([H])c1F', '[H]OC1=C([H])C(=O)C([H])([H])[C@@]([H])(c2c([H])c([H])c(F)c([H])c2[H])C1([H])[H]']","['[#8]=[#6]1-[#6@@](-[#6@](-[#6@](-[#6](=[#8])-[#6@]-1(-[H])-[H])(-[H])-[H])(-[H])-[#6]1:[#6](:[#6](:[#6](:[#6](:[#6]:1-[H])-[H])-[#9])-[H])-[H])(-[H])-[H]', '[#8](-[#6]1-[#6@@](-[#6@](-[#6@](-[#6](=[#8])-[#6]=1-[H])(-[H])-[H])(-[H])-[#6]1:[#6](:[#6](:[#6](:[#6](:[#6]:1-[H])-[H])-[#9])-[H])-[H])(-[H])-[H])-[H]']","['InChI=1S/C12H11FO2/c13-10-3-1-8(2-4-10)9-5-11(14)7-12(15)6-9/h1-4,9H,5-7H2', 'InChI=1S/C12H11FO2/c13-10-3-1-8(2-4-10)9-5-11(14)7-12(15)6-9/h1-4,7,9,14H,5-6H2/t9-/m0/s1']","['LBTLJACXBCUFEF-UHFFFAOYSA-N', 'YFUUDHIDZJFMGD-VIFPVBQESA-N']"
44dimethyl13cyclohexanedione_neut->an,5.19,"4,4-dimethyl-1,3-cyclohexanedione",doi.org/10.1038/s42004-020-0264-7,"['[H]OC1=C([H])C(=O)C(C([H])([H])[H])(C([H])([H])[H])C([H])([H])C1([H])[H]', '[H]OC1=C([H])C(=O)C([H])([H])C([H])([H])C1(C([H])([H])[H])C([H])([H])[H]', '[H]C1([H])C(=O)C([H])([H])C([H])([H])C(C([H])([H])[H])(C([H])([H])[H])C1=O']","['[#8]=[#6]1-[#6@](-[#6@](-[#6@](-[#6](-[#8]-[H])=[#6]-1-[H])(-[H])-[H])(-[H])-[H])(-[#6@@](-[H])(-[H])-[H])-[#6@@](-[H])(-[H])-[H]', '[#8](-[#6]1-[#6@](-[#6@](-[#6@](-[#6](=[#8])-[#6]=1-[H])(-[H])-[H])(-[H])-[H])(-[#6@@](-[H])(-[H])-[H])-[#6@@](-[H])(-[H])-[H])-[H]', '[#8]=[#6]1-[#6@](-[#6@](-[#6@](-[#6](=[#8])-[#6@]-1(-[H])-[H])(-[H])-[H])(-[H])-[H])(-[#6@@](-[H])(-[H])-[H])-[#6@@](-[H])(-[H])-[H]']","['InChI=1S/C8H12O2/c1-8(2)4-3-6(9)5-7(8)10/h5,9H,3-4H2,1-2H3', 'InChI=1S/C8H12O2/c1-8(2)4-3-6(9)5-7(8)10/h5,10H,3-4H2,1-2H3', 'InChI=1S/C8H12O2/c1-8(2)4-3-6(9)5-7(8)10/h3-5H2,1-2H3']","['GJTQDYIHNGOIPN-UHFFFAOYSA-N', 'ACLOTXWRIQLMEM-UHFFFAOYSA-N', 'PLGPBTCNKJQJHQ-UHFFFAOYSA-N']"
2hydroxy4methylpyrimidin5ylphosphonic_neut->an,2.51,2-hydroxy-4methyl-pyrimidin-5-yl-phosphonic acid,doi: 10.1208/ps030210.,"['[H]Oc1nc([H])c(P(=O)(O[H])O[H])c(C([H])([H])[H])n1', '[H]O[P@](=O)([O-])c1c([H])n([H])c(=O)[n+]([H])c1C([H])([H])[H]', '[H]OP(=O)(O[H])c1c(C([H])([H])[H])nc(=O)n([H])c1[H]']","['[#8](-[#15@](-[#8]-[H])(=[#8])-[#6]1:[#6](:[#7]:[#6](-[#8]-[H]):[#7]:[#6]:1-[H])-[#6@@](-[H])(-[H])-[H])-[H]', '[#8](-[#15@](=[#8])(-[#8-])-[#6]1:[#6](:[#7+](:[#6](=[#8]):[#7](:[#6]:1-[H])-[H])-[H])-[#6@@](-[H])(-[H])-[H])-[H]', '[#8](-[#15@](-[#8]-[H])(=[#8])-[#6]1:[#6](:[#7]:[#6](=[#8]):[#7](:[#6]:1-[H])-[H])-[#6@@](-[H])(-[H])-[H])-[H]']","['InChI=1S/C5H7N2O4P/c1-3-4(12(9,10)11)2-6-5(8)7-3/h2H,1H3,(H,6,7,8)(H2,9,10,11)']",['FTEWKHSELFAXKA-UHFFFAOYSA-N']
2hydroxy4methylpyrimidin5ylphosphonic_an->2an,5.92,2-hydroxy-4methyl-pyrimidin-5-yl-phosphonic acid,doi: 10.1208/ps030210.,"['[H]Oc1nc([H])c(P(=O)(O[H])O[H])c(C([H])([H])[H])n1', '[H]O[P@](=O)([O-])c1c([H])n([H])c(=O)[n+]([H])c1C([H])([H])[H]', '[H]OP(=O)(O[H])c1c(C([H])([H])[H])nc(=O)n([H])c1[H]']","['[#8](-[#15@](-[#8]-[H])(=[#8])-[#6]1:[#6](:[#7]:[#6](-[#8]-[H]):[#7]:[#6]:1-[H])-[#6@@](-[H])(-[H])-[H])-[H]', '[#8](-[#15@](=[#8])(-[#8-])-[#6]1:[#6](:[#7+](:[#6](=[#8]):[#7](:[#6]:1-[H])-[H])-[H])-[#6@@](-[H])(-[H])-[H])-[H]', '[#8](-[#15@](-[#8]-[H])(=[#8])-[#6]1:[#6](:[#7]:[#6](=[#8]):[#7](:[#6]:1-[H])-[H])-[#6@@](-[H])(-[H])-[H])-[H]']","['InChI=1S/C5H7N2O4P/c1-3-4(12(9,10)11)2-6-5(8)7-3/h2H,1H3,(H,6,7,8)(H2,9,10,11)']",['FTEWKHSELFAXKA-UHFFFAOYSA-N']
2hydroxy4methylpyrimidin5ylphosphonic_2an->3an,10.03,2-hydroxy-4methyl-pyrimidin-5-yl-phosphonic acid,doi: 10.1208/ps030210.,"['[H]Oc1nc([H])c(P(=O)(O[H])O[H])c(C([H])([H])[H])n1', '[H]O[P@](=O)([O-])c1c([H])n([H])c(=O)[n+]([H])c1C([H])([H])[H]', '[H]OP(=O)(O[H])c1c(C([H])([H])[H])nc(=O)n([H])c1[H]']","['[#8](-[#15@](-[#8]-[H])(=[#8])-[#6]1:[#6](:[#7]:[#6](-[#8]-[H]):[#7]:[#6]:1-[H])-[#6@@](-[H])(-[H])-[H])-[H]', '[#8](-[#15@](=[#8])(-[#8-])-[#6]1:[#6](:[#7+](:[#6](=[#8]):[#7](:[#6]:1-[H])-[H])-[H])-[#6@@](-[H])(-[H])-[H])-[H]', '[#8](-[#15@](-[#8]-[H])(=[#8])-[#6]1:[#6](:[#7]:[#6](=[#8]):[#7](:[#6]:1-[H])-[H])-[#6@@](-[H])(-[H])-[H])-[H]']","['InChI=1S/C5H7N2O4P/c1-3-4(12(9,10)11)2-6-5(8)7-3/h2H,1H3,(H,6,7,8)(H2,9,10,11)']",['FTEWKHSELFAXKA-UHFFFAOYSA-N']
4nitrophenylphosphonic_neut->an,1.19,4-nitrophenyl-phosphonic acid,https://cdnsciencepub.com/doi/pdf/10.1139/v87-290,['[H]OP(=O)(O[H])c1c([H])c([H])c([N+](=O)[O-])c([H])c1[H]'],['[#8](-[#15@](-[#8]-[H])(=[#8])-[#6]1:[#6](:[#6](:[#6](-[#7+](=[#8])-[#8-]):[#6](:[#6]:1-[H])-[H])-[H])-[H])-[H]'],"['InChI=1S/C6H6NO5P/c8-7(9)5-1-3-6(4-2-5)13(10,11)12/h1-4H,(H2,10,11,12)']",['CBWCNKVANCTCAD-UHFFFAOYSA-N']
4nitrophenylphosphonic_an>2an,6.67,4-nitrophenyl-phosphonic acid,https://cdnsciencepub.com/doi/pdf/10.1139/v87-290,['[H]OP(=O)(O[H])c1c([H])c([H])c([N+](=O)[O-])c([H])c1[H]'],['[#8](-[#15@](-[#8]-[H])(=[#8])-[#6]1:[#6](:[#6](:[#6](-[#7+](=[#8])-[#8-]):[#6](:[#6]:1-[H])-[H])-[H])-[H])-[H]'],"['InChI=1S/C6H6NO5P/c8-7(9)5-1-3-6(4-2-5)13(10,11)12/h1-4H,(H2,10,11,12)']",['CBWCNKVANCTCAD-UHFFFAOYSA-N']
4chlorophenylphosphonic_neut->an,1.58,4-chlorophenyl-phosphonic acid,https://cdnsciencepub.com/doi/pdf/10.1139/v87-290,['[H]OP(=O)(O[H])c1c([H])c([H])c(Cl)c([H])c1[H]'],['[#8](-[#15@](-[#8]-[H])(=[#8])-[#6]1:[#6](:[#6](:[#6](:[#6](:[#6]:1-[H])-[H])-[#17])-[H])-[H])-[H]'],"['InChI=1S/C6H6ClO3P/c7-5-1-3-6(4-2-5)11(8,9)10/h1-4H,(H2,8,9,10)']",['MVCIBABYNNIPFI-UHFFFAOYSA-N']
4chlorophenylphosphonic_an>2an,7.23,4-chlorophenyl-phosphonic acid,https://cdnsciencepub.com/doi/pdf/10.1139/v87-290,['[H]OP(=O)(O[H])c1c([H])c([H])c(Cl)c([H])c1[H]'],['[#8](-[#15@](-[#8]-[H])(=[#8])-[#6]1:[#6](:[#6](:[#6](:[#6](:[#6]:1-[H])-[H])-[#17])-[H])-[H])-[H]'],"['InChI=1S/C6H6ClO3P/c7-5-1-3-6(4-2-5)11(8,9)10/h1-4H,(H2,8,9,10)']",['MVCIBABYNNIPFI-UHFFFAOYSA-N']
4phosphobenzoic_neut->an,1.51,4-phosphobenzoic acid,https://cdnsciencepub.com/doi/pdf/10.1139/v87-290,['[H]OC(=O)c1c([H])c([H])c(P(=O)(O[H])O[H])c([H])c1[H]'],['[#8](-[#15@](-[#8]-[H])(=[#8])-[#6]1:[#6](:[#6](:[#6](:[#6](:[#6]:1-[H])-[H])-[#6](=[#8])-[#8]-[H])-[H])-[H])-[H]'],"['InChI=1S/C7H7O5P/c8-7(9)5-1-3-6(4-2-5)13(10,11)12/h1-4H,(H,8,9)(H2,10,11,12)']",['IEQICHVXWFGDAN-UHFFFAOYSA-N']
4phosphobenzoic_an->2an,4.37,4-phosphobenzoic acid,https://cdnsciencepub.com/doi/pdf/10.1139/v87-290,['[H]OC(=O)c1c([H])c([H])c(P(=O)(O[H])O[H])c([H])c1[H]'],['[#8](-[#15@](-[#8]-[H])(=[#8])-[#6]1:[#6](:[#6](:[#6](:[#6](:[#6]:1-[H])-[H])-[#6](=[#8])-[#8]-[H])-[H])-[H])-[H]'],"['InChI=1S/C7H7O5P/c8-7(9)5-1-3-6(4-2-5)13(10,11)12/h1-4H,(H,8,9)(H2,10,11,12)']",['IEQICHVXWFGDAN-UHFFFAOYSA-N']
4phosphobenzoic_2an->3an,7.64,4-phosphobenzoic acid,https://cdnsciencepub.com/doi/pdf/10.1139/v87-290,['[H]OC(=O)c1c([H])c([H])c(P(=O)(O[H])O[H])c([H])c1[H]'],['[#8](-[#15@](-[#8]-[H])(=[#8])-[#6]1:[#6](:[#6](:[#6](:[#6](:[#6]:1-[H])-[H])-[#6](=[#8])-[#8]-[H])-[H])-[H])-[H]'],"['InChI=1S/C7H7O5P/c8-7(9)5-1-3-6(4-2-5)13(10,11)12/h1-4H,(H,8,9)(H2,10,11,12)']",['IEQICHVXWFGDAN-UHFFFAOYSA-N']
4ethoxyphenylphosphonic_neut->an,2,4-ethoxyphenyl-phosphonic acid,https://cdnsciencepub.com/doi/pdf/10.1139/v87-290,['[H]OP(=O)(O[H])c1c([H])c([H])c(OC([H])([H])C([H])([H])[H])c([H])c1[H]'],['[#8](-[#15@](-[#8]-[H])(=[#8])-[#6]1:[#6](:[#6](:[#6](:[#6](:[#6]:1-[H])-[H])-[#8]-[#6@@](-[H])(-[H])-[#6@@](-[H])(-[H])-[H])-[H])-[H])-[H]'],"['InChI=1S/C8H11O4P/c1-2-12-7-3-5-8(6-4-7)13(9,10)11/h3-6H,2H2,1H3,(H2,9,10,11)']",['ORUZLAKPEKBACC-UHFFFAOYSA-N']
4ethoxyphenylphosphonic_an->2an,7.65,4-ethoxyphenyl-phosphonic acid,https://cdnsciencepub.com/doi/pdf/10.1139/v87-290,['[H]OP(=O)(O[H])c1c([H])c([H])c(OC([H])([H])C([H])([H])[H])c([H])c1[H]'],['[#8](-[#15@](-[#8]-[H])(=[#8])-[#6]1:[#6](:[#6](:[#6](:[#6](:[#6]:1-[H])-[H])-[#8]-[#6@@](-[H])(-[H])-[#6@@](-[H])(-[H])-[H])-[H])-[H])-[H]'],"['InChI=1S/C8H11O4P/c1-2-12-7-3-5-8(6-4-7)13(9,10)11/h3-6H,2H2,1H3,(H2,9,10,11)']",['ORUZLAKPEKBACC-UHFFFAOYSA-N']
ethylphosphonic_neut->an,2.45,ethyl-phosphonic acid,10.1021/jp9067087,['[H]OP(=O)(O[H])C([H])([H])C([H])([H])[H]'],['[#8](-[#15@@](-[#8]-[H])(=[#8])-[#6@@](-[#6@@](-[H])(-[H])-[H])(-[H])-[H])-[H]'],"['InChI=1S/C2H7O3P/c1-2-6(3,4)5/h2H2,1H3,(H2,3,4,5)']",['GATNOFPXSDHULC-UHFFFAOYSA-N']
ethylphosphonic_an->2an,8.05,ethyl-phosphonic acid,10.1021/jp9067087,['[H]OP(=O)(O[H])C([H])([H])C([H])([H])[H]'],['[#8](-[#15@@](-[#8]-[H])(=[#8])-[#6@@](-[#6@@](-[H])(-[H])-[H])(-[H])-[H])-[H]'],"['InChI=1S/C2H7O3P/c1-2-6(3,4)5/h2H2,1H3,(H2,3,4,5)']",['GATNOFPXSDHULC-UHFFFAOYSA-N']
vinylphospohnic_neut->an ,2.74,vinyl-phosphonic acid,https://onlinelibrary.wiley.com/doi/epdf/10.1002/marc.200600513,['[H]OP(=O)(O[H])C([H])=C([H])[H]'],['[#8](-[#15@@](-[#8]-[H])(=[#8])-[#6](=[#6](-[H])-[H])-[H])-[H]'],"['InChI=1S/C2H5O3P/c1-2-6(3,4)5/h2H,1H2,(H2,3,4,5)']",['ZTWTYVWXUKTLCP-UHFFFAOYSA-N']
vinylphospohnic_an->2an ,7.34,vinyl-phosphonic acid,https://onlinelibrary.wiley.com/doi/epdf/10.1002/marc.200600513,['[H]OP(=O)(O[H])C([H])=C([H])[H]'],['[#8](-[#15@@](-[#8]-[H])(=[#8])-[#6](=[#6](-[H])-[H])-[H])-[H]'],"['InChI=1S/C2H5O3P/c1-2-6(3,4)5/h2H,1H2,(H2,3,4,5)']",['ZTWTYVWXUKTLCP-UHFFFAOYSA-N']
ditrifluoroacetylguanazine_neut->an,5.9,di-trifluoroacetyl-guanazine,"Journal of Pharmaceutical Sciences ,71,1,89,1988",['[H]N(C(=O)C(F)(F)F)c1nc(N([H])C(=O)C(F)(F)F)n([H])n1'],"['[#7]1(:[#7]:[#6](:[#7]:[#6]:1-[#7](-[#6](=[#8])-[#6@](-[#9])(-[#9])-[#9])-[H])-[#7](-[#6](=[#8])-[#6@@](-[#9])(-[#9])-[#9])-[H])-[H]', '[#7]1(:[#7]:[#6](:[#7]:[#6]:1-[#7](-[#6](=[#8])-[#6@](-[#9])(-[#9])-[#9])-[H])-[#7](-[#6](=[#8])-[#6@](-[#9])(-[#9])-[#9])-[H])-[H]']","['InChI=1S/C6H3F6N5O2/c7-5(8,9)1(18)13-3-15-4(17-16-3)14-2(19)6(10,11)12/h(H3,13,14,15,16,17,18,19)']",['PIIVXXVXTONMLG-UHFFFAOYSA-N']
diacetylguanazline_neut->an,9.35,diacetyl-guanazine,"Journal of Pharmaceutical Sciences ,71,1,89,1988",['[H]N(C(=O)C([H])([H])[H])c1nc(N([H])C(=O)C([H])([H])[H])n([H])n1'],['[#7]1(:[#7]:[#6](:[#7]:[#6]:1-[#7](-[#6](=[#8])-[#6@@](-[H])(-[H])-[H])-[H])-[#7](-[#6](=[#8])-[#6@@](-[H])(-[H])-[H])-[H])-[H]'],"['InChI=1S/C6H9N5O2/c1-3(12)7-5-9-6(11-10-5)8-4(2)13/h1-2H3,(H3,7,8,9,10,11,12,13)']",['ZSHJCTQANTWDDG-UHFFFAOYSA-N']
pterin_neut->an,7.9,pterin,"Acc. Chem.  Res.2006,39,395-402",['[H]c1nc2nc(N([H])[H])n([H])c(=O)c2nc1[H]'],['[#8]=[#6]1:[#7](:[#6](:[#7]:[#6]2:[#7]:[#6](:[#6](:[#7]:[#6]:2:1)-[H])-[H])-[#7](-[H])-[H])-[H]'],"['InChI=1S/C6H5N5O/c7-6-10-4-3(5(12)11-6)8-1-2-9-4/h1-2H,(H3,7,9,10,11,12)']",['HNXQXTQTPAJEJL-UHFFFAOYSA-N']
6methyl2amino4hydroxypteridine_neut->an,8.3,6-methyl-pterin,"Acc. Chem.  Res.2006,39,395-402","['[H]Oc1nc(N([H])[H])nc2nc([H])c(C([H])([H])[H])nc12', '[H]c1nc2nc(N([H])[H])n([H])c(=O)c2nc1C([H])([H])[H]']","['[#7]1:[#6]2:[#7]:[#6](:[#6](:[#7]:[#6]:2:[#6](:[#7]:[#6]:1-[#7](-[H])-[H])-[#8]-[H])-[#6@@](-[H])(-[H])-[H])-[H]', '[#8]=[#6]1:[#7](:[#6](:[#7]:[#6]2:[#7]:[#6](:[#6](:[#7]:[#6]:2:1)-[#6@@](-[H])(-[H])-[H])-[H])-[#7](-[H])-[H])-[H]']","['InChI=1S/C7H7N5O/c1-3-2-9-5-4(10-3)6(13)12-7(8)11-5/h2H,1H3,(H3,8,9,11,12,13)']",['UDOGNMDURIJYQC-UHFFFAOYSA-N']
67dimethylpterin_neut->an,8.6,"6,7-dimethyl-pterin","Acc. Chem.  Res.2006,39,395-402",['[H]N([H])c1nc2nc(C([H])([H])[H])c(C([H])([H])[H])nc2c(=O)n1[H]'],['[#8]=[#6]1:[#7](:[#6](:[#7]:[#6]2:[#7]:[#6](:[#6](:[#7]:[#6]:2:1)-[#6@@](-[H])(-[H])-[H])-[#6@@](-[H])(-[H])-[H])-[#7](-[H])-[H])-[H]'],"['InChI=1S/C8H9N5O/c1-3-4(2)11-6-5(10-3)7(14)13-8(9)12-6/h1-2H3,(H3,9,11,12,13,14)']",['ZKWZUPPXTCQQJL-UHFFFAOYSA-N']
6hydroxymethylpterin_neut->an,8.1,6-hydroxymethyl-pterin,"Acc. Chem.  Res.2006,39,395-402",['[H]OC([H])([H])c1nc2c(=O)n([H])c(N([H])[H])nc2nc1[H]'],['[#8]=[#6]1:[#7](:[#6](:[#7]:[#6]2:[#7]:[#6](:[#6](:[#7]:[#6]:2:1)-[#6@@](-[H])(-[H])-[#8]-[H])-[H])-[#7](-[H])-[H])-[H]'],"['InChI=1S/C7H7N5O2/c8-7-11-5-4(6(14)12-7)10-3(2-13)1-9-5/h1,13H,2H2,(H3,8,9,11,12,14)']",['XGWIBNWDLMIPNF-UHFFFAOYSA-N']
4carboxymethylpterin_an->2an,7.9,6-carboxymethyl-pterin,"Acc. Chem.  Res.2006,39,395-402",['[H]c1nc2nc(N([H])[H])n([H])c(=O)c2nc1C(=O)[O-]'],['[#8]=[#6]1:[#7](:[#6](:[#7]:[#6]2:[#7]:[#6](:[#6](:[#7]:[#6]:2:1)-[#6](=[#8])-[#8-])-[H])-[#7](-[H])-[H])-[H]'],"['InChI=1S/C7H5N5O3/c8-7-11-4-3(5(13)12-7)10-2(1-9-4)6(14)15/h1H,(H,14,15)(H3,8,9,11,12,13)/p-1']",['QABAUCFGPWONOG-UHFFFAOYSA-M']
68dimethylN5deazapterin_cation->neut,6.7,"6,8-dimethyl-N5-deazapterin","Eur. J. Biochem. 221, 1055-1062 (1994)",['[H]c1c(C([H])([H])[H])c([H])n(C([H])([H])[H])c2nc(N([H])[H])nc(=O)c1-2'],['[#8]=[#6]1:[#7]:[#6](:[#7]:[#6]2:[#7](:[#6](:[#6](-[#6@@](-[H])(-[H])-[H]):[#6](:[#6]:1-2)-[H])-[H])-[#6@@](-[H])(-[H])-[H])-[#7](-[H])-[H]'],"['InChI=1S/C9H10N4O/c1-5-3-6-7(13(2)4-5)11-9(10)12-8(6)14/h3-4H,1-2H3,(H2,10,12,14)']",['YHRQWKRVIPKKMS-UHFFFAOYSA-N']
2phosphobenzoic_neut->an,1.55,3-phosphobenzoic acid,https://cdnsciencepub.com/doi/pdf/10.1139/v87-290,['[H]OC(=O)c1c([H])c([H])c([H])c(P(=O)(O[H])O[H])c1[H]'],['[#8]=[#15@](-[#8]-[H])(-[#8]-[H])-[#6]1:[#6](:[#6](:[#6](:[#6](:[#6]:1-[H])-[H])-[H])-[#6](=[#8])-[#8]-[H])-[H]'],"['InChI=1S/C7H7O5P/c8-7(9)5-2-1-3-6(4-5)13(10,11)12/h1-4H,(H,8,9)(H2,10,11,12)']",['ZKKXCRILZNBJJM-UHFFFAOYSA-N']
2phosphobenzoic_an->2an,4.37,3-phosphobenzoic acid,https://cdnsciencepub.com/doi/pdf/10.1139/v87-290,['[H]OC(=O)c1c([H])c([H])c([H])c(P(=O)(O[H])O[H])c1[H]'],['[#8]=[#15@](-[#8]-[H])(-[#8]-[H])-[#6]1:[#6](:[#6](:[#6](:[#6](:[#6]:1-[H])-[H])-[H])-[#6](=[#8])-[#8]-[H])-[H]'],"['InChI=1S/C7H7O5P/c8-7(9)5-2-1-3-6(4-5)13(10,11)12/h1-4H,(H,8,9)(H2,10,11,12)']",['ZKKXCRILZNBJJM-UHFFFAOYSA-N']
2phosphobenzoic_2an->3an,7.78,3-phosphobenzoic acid,https://cdnsciencepub.com/doi/pdf/10.1139/v87-290,['[H]OC(=O)c1c([H])c([H])c([H])c(P(=O)(O[H])O[H])c1[H]'],['[#8]=[#15@](-[#8]-[H])(-[#8]-[H])-[#6]1:[#6](:[#6](:[#6](:[#6](:[#6]:1-[H])-[H])-[H])-[#6](=[#8])-[#8]-[H])-[H]'],"['InChI=1S/C7H7O5P/c8-7(9)5-2-1-3-6(4-5)13(10,11)12/h1-4H,(H,8,9)(H2,10,11,12)']",['ZKKXCRILZNBJJM-UHFFFAOYSA-N']
4fluorophenylphosphonic_neut->an,1.59,4-fluorophenylphosphonic acid,doi.org/10.1016/j.jpba.2017.05.038,['[H]OP(=O)(O[H])c1c([H])c([H])c(F)c([H])c1[H]'],['[#8](-[#15@](-[#8]-[H])(=[#8])-[#6]1:[#6](:[#6](:[#6](:[#6](:[#6]:1-[H])-[H])-[#9])-[H])-[H])-[H]'],"['InChI=1S/C6H6FO3P/c7-5-1-3-6(4-2-5)11(8,9)10/h1-4H,(H2,8,9,10)']",['ZCCVDWVYQFJUFD-UHFFFAOYSA-N']
4fluorophenylphosphonic_an->neut,6.96,4-fluorophenylphosphonic acid,doi.org/10.1016/j.jpba.2017.05.038,['[H]OP(=O)(O[H])c1c([H])c([H])c(F)c([H])c1[H]'],['[#8](-[#15@](-[#8]-[H])(=[#8])-[#6]1:[#6](:[#6](:[#6](:[#6](:[#6]:1-[H])-[H])-[#9])-[H])-[H])-[H]'],"['InChI=1S/C6H6FO3P/c7-5-1-3-6(4-2-5)11(8,9)10/h1-4H,(H2,8,9,10)']",['ZCCVDWVYQFJUFD-UHFFFAOYSA-N']
4trifluoromethylphenylphosphonic_neut->an,1.28,(4-trifluoromethyl-phenyl)phosphonic acid,doi.org/10.1016/j.jpba.2017.05.038,['[H]OP(=O)(O[H])c1c([H])c([H])c(C(F)(F)F)c([H])c1[H]'],['[#8](-[#15@](-[#8]-[H])(=[#8])-[#6]1:[#6](:[#6](:[#6](:[#6](:[#6]:1-[H])-[H])-[#6@@](-[#9])(-[#9])-[#9])-[H])-[H])-[H]'],"['InChI=1S/C7H6F3O3P/c8-7(9,10)5-1-3-6(4-2-5)14(11,12)13/h1-4H,(H2,11,12,13)']",['HJMPWNMEAAWAIW-UHFFFAOYSA-N']
4trifluoromethylphenylphosphonic_an->2an,6.48,(4-trifluoromethyl-phenyl)phosphonic acid,doi.org/10.1016/j.jpba.2017.05.038,['[H]OP(=O)(O[H])c1c([H])c([H])c(C(F)(F)F)c([H])c1[H]'],['[#8](-[#15@](-[#8]-[H])(=[#8])-[#6]1:[#6](:[#6](:[#6](:[#6](:[#6]:1-[H])-[H])-[#6@@](-[#9])(-[#9])-[#9])-[H])-[H])-[H]'],"['InChI=1S/C7H6F3O3P/c8-7(9,10)5-1-3-6(4-2-5)14(11,12)13/h1-4H,(H2,11,12,13)']",['HJMPWNMEAAWAIW-UHFFFAOYSA-N']
4trifluoromethoxyphenylphosphonic_neut->an,1.45,(4-trifuloromethoxy)-phenylphosphonic acid,doi.org/10.1016/j.jpba.2017.05.038,['[H]OP(=O)(O[H])c1c([H])c([H])c(OC(F)(F)F)c([H])c1[H]'],['[#8](-[#15@](-[#8]-[H])(=[#8])-[#6]1:[#6](:[#6](:[#6](:[#6](:[#6]:1-[H])-[H])-[#8]-[#6@@](-[#9])(-[#9])-[#9])-[H])-[H])-[H]'],"['InChI=1S/C7H6F3O4P/c8-7(9,10)14-5-1-3-6(4-2-5)15(11,12)13/h1-4H,(H2,11,12,13)']",['FZEWVOOKPVVPNR-UHFFFAOYSA-N']
4trifluoromethoxyphenylphosphonic_an->2an,6.69,(4-trifuloromethoxy)-phenylphosphonic acid,doi.org/10.1016/j.jpba.2017.05.038,['[H]OP(=O)(O[H])c1c([H])c([H])c(OC(F)(F)F)c([H])c1[H]'],['[#8](-[#15@](-[#8]-[H])(=[#8])-[#6]1:[#6](:[#6](:[#6](:[#6](:[#6]:1-[H])-[H])-[#8]-[#6@@](-[#9])(-[#9])-[#9])-[H])-[H])-[H]'],"['InChI=1S/C7H6F3O4P/c8-7(9,10)14-5-1-3-6(4-2-5)15(11,12)13/h1-4H,(H2,11,12,13)']",['FZEWVOOKPVVPNR-UHFFFAOYSA-N']
3acetylphenylphosphonic_neut->an,1.36,(3-acetylphenyl)phosphonic acid,doi.org/10.1016/j.jpba.2017.05.038,['[H]OP(=O)(O[H])c1c([H])c([H])c([H])c(C(=O)C([H])([H])[H])c1[H]'],['[#8](-[#15@](-[#8]-[H])(=[#8])-[#6]1:[#6](:[#6](:[#6](:[#6](:[#6]:1-[H])-[H])-[H])-[#6](=[#8])-[#6@@](-[H])(-[H])-[H])-[H])-[H]'],"['InChI=1S/C8H9O4P/c1-6(9)7-3-2-4-8(5-7)13(10,11)12/h2-5H,1H3,(H2,10,11,12)']",['VXYSVBVUMLWLQV-UHFFFAOYSA-N']
3acetylphenylphosphonic_an->2an,6.61,(3-acetylphenyl)phosphonic acid,doi.org/10.1016/j.jpba.2017.05.038,['[H]OP(=O)(O[H])c1c([H])c([H])c([H])c(C(=O)C([H])([H])[H])c1[H]'],['[#8](-[#15@](-[#8]-[H])(=[#8])-[#6]1:[#6](:[#6](:[#6](:[#6](:[#6]:1-[H])-[H])-[H])-[#6](=[#8])-[#6@@](-[H])(-[H])-[H])-[H])-[H]'],"['InChI=1S/C8H9O4P/c1-6(9)7-3-2-4-8(5-7)13(10,11)12/h2-5H,1H3,(H2,10,11,12)']",['VXYSVBVUMLWLQV-UHFFFAOYSA-N']
4acetylphenylphosphonic_neut->an,1.28,(4-acetylphenyl)phosphonic acid,doi.org/10.1016/j.jpba.2017.05.038,['[H]OP(=O)(O[H])c1c([H])c([H])c(C(=O)C([H])([H])[H])c([H])c1[H]'],['[#8](-[#15@](=[#8])(-[#8]-[H])-[#6]1:[#6](:[#6](:[#6](:[#6](:[#6]:1-[H])-[H])-[#6](=[#8])-[#6@@](-[H])(-[H])-[H])-[H])-[H])-[H]'],"['InChI=1S/C8H9O4P/c1-6(9)7-2-4-8(5-3-7)13(10,11)12/h2-5H,1H3,(H2,10,11,12)']",['MPKCXSCJGCSUQD-UHFFFAOYSA-N']
4acetylphenylphosphonic_an->2an,6.48,(4-acetylphenyl)phosphonic acid,doi.org/10.1016/j.jpba.2017.05.038,['[H]OP(=O)(O[H])c1c([H])c([H])c(C(=O)C([H])([H])[H])c([H])c1[H]'],['[#8](-[#15@](=[#8])(-[#8]-[H])-[#6]1:[#6](:[#6](:[#6](:[#6](:[#6]:1-[H])-[H])-[#6](=[#8])-[#6@@](-[H])(-[H])-[H])-[H])-[H])-[H]'],"['InChI=1S/C8H9O4P/c1-6(9)7-2-4-8(5-3-7)13(10,11)12/h2-5H,1H3,(H2,10,11,12)']",['MPKCXSCJGCSUQD-UHFFFAOYSA-N']
4ethylphenylphosphonic_neut->an,1.73,(4-ethylphenyl)phosphonic acid,doi.org/10.1016/j.jpba.2017.05.038,['[H]OP(=O)(O[H])c1c([H])c([H])c(C([H])([H])C([H])([H])[H])c([H])c1[H]'],['[#8](-[#15@](=[#8])(-[#8]-[H])-[#6]1:[#6](:[#6](:[#6](:[#6](:[#6]:1-[H])-[H])-[#6@@](-[#6@@](-[H])(-[H])-[H])(-[H])-[H])-[H])-[H])-[H]'],"['InChI=1S/C8H11O3P/c1-2-7-3-5-8(6-4-7)12(9,10)11/h3-6H,2H2,1H3,(H2,9,10,11)']",['CRPRCSYCZWFVED-UHFFFAOYSA-N']
4ethylphenylphosphonic_an->2an,7.02,(4-ethylphenyl)phosphonic acid,doi.org/10.1016/j.jpba.2017.05.038,['[H]OP(=O)(O[H])c1c([H])c([H])c(C([H])([H])C([H])([H])[H])c([H])c1[H]'],['[#8](-[#15@](=[#8])(-[#8]-[H])-[#6]1:[#6](:[#6](:[#6](:[#6](:[#6]:1-[H])-[H])-[#6@@](-[#6@@](-[H])(-[H])-[H])(-[H])-[H])-[H])-[H])-[H]'],"['InChI=1S/C8H11O3P/c1-2-7-3-5-8(6-4-7)12(9,10)11/h3-6H,2H2,1H3,(H2,9,10,11)']",['CRPRCSYCZWFVED-UHFFFAOYSA-N']