compn,pKa,correct name,reference,smiles,smarts,inchi,inchiKey
aminomethylphosphonic_neut->an,5.4,aminomethylphosphonic acid,https://doi.org/10.1016/j.talanta.2008.12.052,['[H]O[P@@](=O)([O-])C([H])([H])[N+]([H])([H])[H]'],['[#8](-[#15@@](=[#8])(-[#8-])-[#6@@](-[#7@+](-[H])(-[H])-[H])(-[H])-[H])-[H]'],"['InChI=1S/CH6NO3P/c2-1-6(3,4)5/h1-2H2,(H2,3,4,5)']",['MGRVRXRGTBOSHW-UHFFFAOYSA-N']
aminomethylsulfonic_neut->an,5.57,aminomethylsulfonic acid,Lange's handbook of chemistry,['[H]C([H])([N+]([H])([H])[H])S(=O)(=O)[O-]'],['[#8]=[#16@](=[#8])(-[#8-])-[#6@](-[#7@+](-[H])(-[H])-[H])(-[H])-[H]'],"['InChI=1S/CH5NO3S/c2-1-6(3,4)5/h1-2H2,(H,3,4,5)']",['OBESRABRARNZJB-UHFFFAOYSA-N']
aminotetrazole_neut->an,6.07,aminotetrazole,Lange's handbook of chemistry,"['[H]N([H])c1nnn([H])n1', '[H]N([H])c1nnnn1[H]']","['[#7]1:[#6](:[#7]:[#7]:[#7]:1-[H])-[#7](-[H])-[H]', '[#7]1(:[#6](:[#7]:[#7]:[#7]:1)-[#7](-[H])-[H])-[H]']","['InChI=1S/CH3N5/c2-1-3-5-6-4-1/h(H3,2,3,4,5,6)']",['ULRPISSMEBPJLN-UHFFFAOYSA-N']
aminotetrazole_cation->neut,1.76,aminotetrazole,Lange's handbook of chemistry,"['[H]N([H])c1nnn([H])n1', '[H]N([H])c1nnnn1[H]']","['[#7]1:[#6](:[#7]:[#7]:[#7]:1-[H])-[#7](-[H])-[H]', '[#7]1(:[#6](:[#7]:[#7]:[#7]:1)-[#7](-[H])-[H])-[H]']","['InChI=1S/CH3N5/c2-1-3-5-6-4-1/h(H3,2,3,4,5,6)']",['ULRPISSMEBPJLN-UHFFFAOYSA-N']
angelic_neut->an,4.29,angelic acid,"G. KORTUM, W. VOGEL and K. ANDRUSSOW, DISSOCIATION CONSTANTS OF ORGANIC ACIDS IN AQUEOUS SOLUTION ",['[H]OC(=O)/C(=C(/[H])C([H])([H])[H])C([H])([H])[H]'],['[#6](=[#8])(-[#8]-[H])/[#6](=[#6](/[H])-[#6@@](-[H])(-[H])-[H])-[#6@@](-[H])(-[H])-[H]'],"['InChI=1S/C5H8O2/c1-3-4(2)5(6)7/h3H,1-2H3,(H,6,7)/b4-3-']",['UIERETOOQGIECD-ARJAWSKDSA-N']
anhydroplatynecine_cation->neut,9.4,"(1r,8s)-7-methylidene-1,2,3,5,6,8-hexahydropyrrolizin-1-ol",".R. Adams, M. Carmack, and J. E. Mahan. J. Am. Chem. Soc. 64, 2593 (1942).",['[H]O[C@]1([H])C([H])([H])C([H])([H])N2C([H])([H])C([H])([H])C(=C([H])[H])[C@]21[H]'],['[#8](-[#6@]1(-[#6@]2(-[#7](-[#6@](-[#6@@]-1(-[H])-[H])(-[H])-[H])-[#6@](-[#6@](-[#6]-2=[#6](-[H])-[H])(-[H])-[H])(-[H])-[H])-[H])-[H])-[H]'],"['InChI=1S/C8H13NO/c1-6-2-4-9-5-3-7(10)8(6)9/h7-8,10H,1-5H2/t7-,8+/m1/s1']",['OVTJHGIWYOOHFS-SFYZADRCSA-N']
aniline_cation->neut,4.6,aniline,Lange's handbook of chemistry,['[H]c1c([H])c([H])c(N([H])[H])c([H])c1[H]'],['[#6]1(:[#6](:[#6](:[#6](:[#6](:[#6]:1-[H])-[H])-[H])-[#7](-[H])-[H])-[H])-[H]'],"['InChI=1S/C6H7N/c7-6-4-2-1-3-5-6/h1-5H,7H2']",['PAYRUJLWNCNPSJ-UHFFFAOYSA-N']
anthraquinone1carboxylic_neut->an,3.37,anthraquinone-1-carboxylic acid,Lange's handbook of chemistry,['[H]OC(=O)c1c([H])c([H])c([H])c2c1C(=O)c1c([H])c([H])c([H])c([H])c1C2=O'],['[#8]=[#6]1-[#6]2:[#6](-[#6](=[#8])-[#6]3:[#6]-1:[#6](:[#6](:[#6](:[#6]:3-[H])-[H])-[H])-[H]):[#6](:[#6](:[#6](:[#6]:2-[#6](-[#8]-[H])=[#8])-[H])-[H])-[H]'],"['InChI=1S/C15H8O4/c16-13-8-4-1-2-5-9(8)14(17)12-10(13)6-3-7-11(12)15(18)19/h1-7H,(H,18,19)']",['POPBYCBXVLHSKO-UHFFFAOYSA-N']
anthraquinone2carboxylic_neut->an,3.42,anthraquinone-2-carboxyllic acid,Lange's handbook of chemistry,['[H]OC(=O)c1c([H])c([H])c2c(c1[H])C(=O)c1c([H])c([H])c([H])c([H])c1C2=O'],['[#8]=[#6]1-[#6]2:[#6](-[#6](=[#8])-[#6]3:[#6]-1:[#6](:[#6](:[#6](:[#6]:3-[H])-[H])-[H])-[H]):[#6](:[#6](:[#6](:[#6]:2-[H])-[#6](-[#8]-[H])=[#8])-[H])-[H]'],"['InChI=1S/C15H8O4/c16-13-9-3-1-2-4-10(9)14(17)12-7-8(15(18)19)5-6-11(12)13/h1-7H,(H,18,19)']",['ASDLSKCKYGVMAI-UHFFFAOYSA-N']
anthraquinonemonoxime_neut->an,9.78,anthraquinone monooxime,Lange's handbook of chemistry,['[H]ON=C1c2c([H])c([H])c([H])c([H])c2C(=O)c2c([H])c([H])c([H])c([H])c21'],['[#6]1(:[#6](:[#6]2:[#6](:[#6](:[#6]:1-[H])-[H])-[#6](-[#6]1:[#6](-[#6]-2=[#7]-[#8]-[H]):[#6](-[H]):[#6](:[#6](:[#6]:1-[H])-[H])-[H])=[#8])-[H])-[H]'],"['InChI=1S/C14H9NO2/c16-14-11-7-3-1-5-9(11)13(15-17)10-6-2-4-8-12(10)14/h1-8,17H']",['TWXOQHRHGLZKFY-UHFFFAOYSA-N']
anthrazene1carboxylic_neut->an,3.68,anthracene-1-carboxylic acid,Lange's handbook of chemistry,['[H]OC(=O)c1c([H])c([H])c([H])c2c([H])c3c([H])c([H])c([H])c([H])c3c([H])c12'],['[#6]1(:[#6](:[#6]2:[#6](:[#6](:[#6]:1-[H])-[H]):[#6](:[#6]1:[#6](:[#6]:2-[H]):[#6](-[H]):[#6](:[#6](:[#6]:1-[#6](=[#8])-[#8]-[H])-[H])-[H])-[H])-[H])-[H]'],"['InChI=1S/C15H10O2/c16-15(17)13-7-3-6-12-8-10-4-1-2-5-11(10)9-14(12)13/h1-9H,(H,16,17)']",['CCFAKBRKTKVJPO-UHFFFAOYSA-N']
anthrazene2carboxylic_neut->an,4.18,anthracene-2-carboxylic acid,Lange's handbook of chemistry,['[H]OC(=O)c1c([H])c([H])c2c([H])c3c([H])c([H])c([H])c([H])c3c([H])c2c1[H]'],['[#6]1(:[#6](:[#6]2:[#6](:[#6](:[#6]:1-[H])-[H]):[#6](:[#6]1:[#6](:[#6]:2-[H]):[#6](-[H]):[#6](:[#6](:[#6]:1-[H])-[#6](=[#8])-[#8]-[H])-[H])-[H])-[H])-[H]'],"['InChI=1S/C15H10O2/c16-15(17)13-6-5-12-7-10-3-1-2-4-11(10)8-14(12)9-13/h1-9H,(H,16,17)']",['RZRJYURCNBXIST-UHFFFAOYSA-N']
anthrazene9carboxylic_neut->an,3.65,anthracene-9-carboxylic acid,Lange's handbook of chemistry,['[H]OC(=O)c1c2c([H])c([H])c([H])c([H])c2c([H])c2c([H])c([H])c([H])c([H])c12'],['[#6]1(:[#6](:[#6]2:[#6](:[#6](:[#6]:1-[H])-[H]):[#6](:[#6]1:[#6](:[#6]:2-[H]):[#6](-[H]):[#6](:[#6](:[#6]:1-[H])-[H])-[H])-[#6](=[#8])-[#8]-[H])-[H])-[H]'],"['InChI=1S/C15H10O2/c16-15(17)14-12-7-3-1-5-10(12)9-11-6-2-4-8-13(11)14/h1-9H,(H,16,17)']",['XGWFJBFNAQHLEF-UHFFFAOYSA-N']
antipyrine_cation->neut,1.45,antipyrine,Lange's handbook of chemistry,['[H]c1c([H])c([H])c(-n2c(=O)c([H])c(C([H])([H])[H])n2C([H])([H])[H])c([H])c1[H]'],['[#8]=[#6]1:[#7](:[#7](:[#6](:[#6]:1-[H])-[#6@](-[H])(-[H])-[H])-[#6@](-[H])(-[H])-[H])-[#6]1:[#6](:[#6](:[#6](:[#6](:[#6]:1-[H])-[H])-[H])-[H])-[H]'],"['InChI=1S/C11H12N2O/c1-9-8-11(14)13(12(9)2)10-6-4-3-5-7-10/h3-8H,1-2H3']",['VEQOALNAAJBPNY-UHFFFAOYSA-N']
apomorphine_cation->neut,7,apomorphine,doi.org/10.1177/10600280780120090,['[H]Oc1c([H])c([H])c2c(c1O[H])-c1c([H])c([H])c([H])c3c1[C@]([H])(N(C([H])([H])[H])C([H])([H])C3([H])[H])C2([H])[H]'],['[#8](-[#6]1:[#6]2-[#6]3:[#6]4-[#6@](-[#7](-[#6@](-[#6@](-[#6]:4:[#6](:[#6](:[#6]:3-[H])-[H])-[H])(-[H])-[H])(-[H])-[H])-[#6@](-[H])(-[H])-[H])(-[#6@](-[#6]:2:[#6](:[#6](:[#6]:1-[#8]-[H])-[H])-[H])(-[H])-[H])-[H])-[H]'],"['InChI=1S/C17H17NO2/c1-18-8-7-10-3-2-4-12-15(10)13(18)9-11-5-6-14(19)17(20)16(11)12/h2-6,13,19-20H,7-9H2,1H3/t13-/m1/s1']",['VMWNQDUVQKEIOC-CYBMUJFWSA-N']
arginine_2cation->cation,2.17,arginine,Lange's handbook of chemistry,['[H]N([H])C(N([H])C([H])([H])C([H])([H])C([H])([H])[C@@]([H])(C(=O)[O-])N([H])[H])=[N+]([H])[H]'],['[#1]-[#7](-[H])-[#6@](-[#6@](-[#6@](-[#6@](-[#7](-[#6](-[#7](-[H])-[H])=[#7+](-[H])-[H])-[H])(-[H])-[H])(-[H])-[H])(-[H])-[H])(-[H])-[#6](=[#8])-[#8-]'],"['InChI=1S/C6H14N4O2/c7-4(5(11)12)2-1-3-10-6(8)9/h4H,1-3,7H2,(H,11,12)(H4,8,9,10)/t4-/m0/s1']",['ODKSFYDXXFIFQN-BYPYZUCNSA-N']
arginine_cation->neut,9.04,arginine,Lange's handbook of chemistry,['[H]N([H])C(N([H])C([H])([H])C([H])([H])C([H])([H])[C@@]([H])(C(=O)[O-])N([H])[H])=[N+]([H])[H]'],['[#1]-[#7](-[H])-[#6@](-[#6@](-[#6@](-[#6@](-[#7](-[#6](-[#7](-[H])-[H])=[#7+](-[H])-[H])-[H])(-[H])-[H])(-[H])-[H])(-[H])-[H])(-[H])-[#6](=[#8])-[#8-]'],"['InChI=1S/C6H14N4O2/c7-4(5(11)12)2-1-3-10-6(8)9/h4H,1-3,7H2,(H,11,12)(H4,8,9,10)/t4-/m0/s1']",['ODKSFYDXXFIFQN-BYPYZUCNSA-N']
asparagine_cation->neut,2.02,asparagine,Lange's handbook of chemistry,['[H]N([H])C(=O)C([H])([H])[C@@]([H])(C(=O)[O-])[N+]([H])([H])[H]'],['[#8]=[#6](-[#8-])-[#6@@](-[#7@+](-[H])(-[H])-[H])(-[#6@@](-[#6](=[#8])-[#7](-[H])-[H])(-[H])-[H])-[H]'],"['InChI=1S/C4H8N2O3/c5-2(4(8)9)1-3(6)7/h2H,1,5H2,(H2,6,7)(H,8,9)/t2-/m0/s1']",['DCXYFEDJOCDNAF-REOHCLBHSA-N']
asparagine_neut->an,8.8,asparagine,Lange's handbook of chemistry,['[H]N([H])C(=O)C([H])([H])[C@@]([H])(C(=O)[O-])[N+]([H])([H])[H]'],['[#8]=[#6](-[#8-])-[#6@@](-[#7@+](-[H])(-[H])-[H])(-[#6@@](-[#6](=[#8])-[#7](-[H])-[H])(-[H])-[H])-[H]'],"['InChI=1S/C4H8N2O3/c5-2(4(8)9)1-3(6)7/h2H,1,5H2,(H2,6,7)(H,8,9)/t2-/m0/s1']",['DCXYFEDJOCDNAF-REOHCLBHSA-N']
aspartic_an->2an,9.6,aspartic acid,Lange's handbook of chemistry,['[H]OC(=O)C([H])([H])[C@@]([H])(C(=O)[O-])[N+]([H])([H])[H]'],['[H]-[#7@@](-[H])(-[H])-[#6@](-[#6@](-[#6](=[#8])-[#8]-[H])(-[H])-[H])(-[H])-[#6](=[#8])-[#8-]'],"['InChI=1S/C4H7NO4/c5-2(4(8)9)1-3(6)7/h2H,1,5H2,(H,6,7)(H,8,9)/t2-/m0/s1']",['CKLJMWTZIZZHCS-REOHCLBHSA-N']
aspartic_cation->neut,1.89,aspartic acid,Lange's handbook of chemistry,['[H]OC(=O)C([H])([H])[C@@]([H])(C(=O)[O-])[N+]([H])([H])[H]'],['[H]-[#7@@](-[H])(-[H])-[#6@](-[#6@](-[#6](=[#8])-[#8]-[H])(-[H])-[H])(-[H])-[#6](=[#8])-[#8-]'],"['InChI=1S/C4H7NO4/c5-2(4(8)9)1-3(6)7/h2H,1,5H2,(H,6,7)(H,8,9)/t2-/m0/s1']",['CKLJMWTZIZZHCS-REOHCLBHSA-N']
aspartic_neut->an,3.65,aspartic acid,Lange's handbook of chemistry,['[H]OC(=O)C([H])([H])[C@@]([H])(C(=O)[O-])[N+]([H])([H])[H]'],['[H]-[#7@@](-[H])(-[H])-[#6@](-[#6@](-[#6](=[#8])-[#8]-[H])(-[H])-[H])(-[H])-[#6](=[#8])-[#8-]'],"['InChI=1S/C4H7NO4/c5-2(4(8)9)1-3(6)7/h2H,1,5H2,(H,6,7)(H,8,9)/t2-/m0/s1']",['CKLJMWTZIZZHCS-REOHCLBHSA-N']
aspidospermine_cation->neut,7.65,aspidospermine,Lange's handbook of chemistry,['[H]c1c([H])c(OC([H])([H])[H])c2c(c1[H])[C@]13C([H])([H])C([H])([H])N4C([H])([H])C([H])([H])C([H])([H])[C@](C([H])([H])C([H])([H])[H])(C([H])([H])C([H])([H])[C@@]1([H])N2C(=O)C([H])([H])[H])[C@@]43[H]'],['[#8](-[#6]1:[#6]2-[#7](-[#6@]3(-[#6@]4(-[#6@@]5(-[#7](-[#6@](-[#6@@]-4(-[H])-[H])(-[H])-[H])-[#6@](-[#6@](-[#6@@](-[#6@@]-5(-[#6@](-[#6@@]-3(-[H])-[H])(-[H])-[H])-[#6@](-[#6@@](-[H])(-[H])-[H])(-[H])-[H])(-[H])-[H])(-[H])-[H])(-[H])-[H])-[H])-[#6]:2:[#6](:[#6](:[#6]:1-[H])-[H])-[H])-[H])-[#6](=[#8])-[#6@](-[H])(-[H])-[H])-[#6@](-[H])(-[H])-[H]'],"['InChI=1S/C22H30N2O2/c1-4-21-10-6-13-23-14-12-22(20(21)23)16-7-5-8-17(26-3)19(16)24(15(2)25)18(22)9-11-21/h5,7-8,18,20H,4,6,9-14H2,1-3H3/t18-,20-,21-,22-/m1/s1']",['ARQOGCYMPUOVHK-ZHHKINOHSA-N']
azetidine_cation->neut,11.29,azetidine,Lange's handbook of chemistry,['[H]N1C([H])([H])C([H])([H])C1([H])[H]'],['[H]-[#6@@]1(-[#6@@](-[#6@@](-[H])(-[H])-[#7]-1-[H])(-[H])-[H])-[H]'],"['InChI=1S/C3H7N/c1-2-4-3-1/h4H,1-3H2']",['HONIICLYMWZJFZ-UHFFFAOYSA-N']
balaninemethylester_cation->neut,9.17,a-alanine methyl ester,Lange's handbook of chemistry,['[H]N([H])C([H])([H])C([H])([H])C(=O)OC([H])([H])[H]'],['[#8](-[#6](=[#8])-[#6@@](-[#6@@](-[#7](-[H])-[H])(-[H])-[H])(-[H])-[H])-[#6@](-[H])(-[H])-[H]'],"['InChI=1S/C4H9NO2/c1-7-4(6)2-3-5/h2-3,5H2,1H3']",['UZCXPYDBYUEZCV-UHFFFAOYSA-N']
barbituric_neut->an,4.06,barbituric acid,profiles of drug substances excipiends and related (U),['[H]N1C(=O)N([H])C(=O)C([H])([H])C1=O'],['[#6]1(-[#6@@](-[#6](=[#8])-[#7](-[#6](=[#8])-[#7]-1-[H])-[H])(-[H])-[H])=[#8]'],"['InChI=1S/C4H4N2O3/c7-2-1-3(8)6-4(9)5-2/h1H2,(H2,5,6,7,8,9)']",['HNYOPLTXPVRDBG-UHFFFAOYSA-N']
bbdifluoroacrilic_neut->an,3.17,3-difluoroacrylic acid,Lange's handbook of chemistry,['[H]OC(=O)C([H])=C(F)F'],['[#6](=[#6](-[H])-[#6](=[#8])-[#8]-[H])(-[#9])-[#9]'],"['InChI=1S/C3H2F2O2/c4-2(5)1-3(6)7/h1H,(H,6,7)']",['KJBJUTSBUKQIKR-UHFFFAOYSA-N']
bbdimethylacrylic_neut->an,5.12,"b,b-dimethylacrylic acid",https://pubs.rsc.org/en/content/articlepdf/1937/jr/jr9370001604,['[H]OC(=O)C([H])=C(C([H])([H])[H])C([H])([H])[H]'],['[#6](=[#8])(-[#8]-[H])-[#6](=[#6](-[#6@@](-[H])(-[H])-[H])-[#6@@](-[H])(-[H])-[H])-[H]'],"['InChI=1S/C5H8O2/c1-4(2)3-5(6)7/h3H,1-2H3,(H,6,7)']",['YYPNJNDODFVZLE-UHFFFAOYSA-N']
benz34isothiazole_cation->neut,-0.1,benzo[c]isothiazole,10.1002/jcc.23068,['[H]c1c([H])c([H])c2c([H])snc2c1[H]'],['[#6]1(:[#16]:[#7]:[#6]2:[#6](:[#6](:[#6](:[#6](:[#6]:1:2)-[H])-[H])-[H])-[H])-[H]'],['InChI=1S/C7H5NS/c1-2-4-7-6(3-1)5-9-8-7/h1-5H'],['JGQPSDIWMGNAPE-UHFFFAOYSA-N']
benzenehydroxamic_neut->an,8.89,benzohydroxamic acid,Lange's handbook of chemistry,['[H]ON([H])C(=O)c1c([H])c([H])c([H])c([H])c1[H]'],['[#8]=[#6](-[#7](-[#8]-[H])-[H])-[#6]1:[#6](:[#6](:[#6](:[#6](:[#6]:1-[H])-[H])-[H])-[H])-[H]'],"['InChI=1S/C7H7NO2/c9-7(8-10)6-4-2-1-3-5-6/h1-5,10H,(H,8,9)']",['VDEUYMSGMPQMIK-UHFFFAOYSA-N']
benzilic_neut->an,3.09,benzilic acid,Lange's handbook of chemistry,['[H]OC(=O)C(O[H])(c1c([H])c([H])c([H])c([H])c1[H])c1c([H])c([H])c([H])c([H])c1[H]'],['[#8](-[#6@@](-[#6]1:[#6](:[#6](:[#6](:[#6](:[#6]:1-[H])-[H])-[H])-[H])-[H])(-[#6]1:[#6](:[#6](:[#6](:[#6](:[#6]:1-[H])-[H])-[H])-[H])-[H])-[#6](-[#8]-[H])=[#8])-[H]'],"['InChI=1S/C14H12O3/c15-13(16)14(17,11-7-3-1-4-8-11)12-9-5-2-6-10-12/h1-10,17H,(H,15,16)']",['UKXSKSHDVLQNKG-UHFFFAOYSA-N']
benzimidazole_cation->neut,5.55,benzimidazole,10.1002/jcc.23068,['[H]c1c([H])c([H])c2c(nc([H])n2[H])c1[H]'],['[#6]12:[#6](:[#6](:[#6](:[#6](:[#6]:1-[H])-[H])-[H])-[H]):[#7]:[#6](-[H]):[#7]:2-[H]'],"['InChI=1S/C7H6N2/c1-2-4-7-6(3-1)8-5-9-7/h1-5H,(H,8,9)']",['HYZJCKYKOHLVJF-UHFFFAOYSA-N']
benzimidazole_neut->an,12.3,benzimidazole,Lange's handbook of chemistry,['[H]c1c([H])c([H])c2c(nc([H])n2[H])c1[H]'],['[#6]12:[#6](:[#6](:[#6](:[#6](:[#6]:1-[H])-[H])-[H])-[H]):[#7]:[#6](-[H]):[#7]:2-[H]'],"['InChI=1S/C7H6N2/c1-2-4-7-6(3-1)8-5-9-7/h1-5H,(H,8,9)']",['HYZJCKYKOHLVJF-UHFFFAOYSA-N']
benzoic_neut->an,4.2,benzoic acid,profiles of drug substances excipiends and related (R),['[H]OC(=O)c1c([H])c([H])c([H])c([H])c1[H]'],['[#6]1(:[#6](:[#6](:[#6](:[#6](:[#6]:1-[H])-[H])-[H])-[H])-[#6](=[#8])-[#8]-[H])-[H]'],"['InChI=1S/C7H6O2/c8-7(9)6-4-2-1-3-5-6/h1-5H,(H,8,9)']",['WPYMKLBDIGXBTP-UHFFFAOYSA-N']
benzoquinonemonoxime_neut->an,6.2,benzoquinone monooxime,Lange's handbook of chemistry,['[H]ON=C1C([H])=C([H])C(=O)C([H])=C1[H]'],['[#6]1(=[#6](-[#6](-[#6](=[#6](-[#6]-1=[#8])-[H])-[H])=[#7]-[#8]-[H])-[H])-[H]'],"['InChI=1S/C6H5NO2/c8-6-3-1-5(7-9)2-4-6/h1-4,9H']",['KMGMCLWJFCGWFI-UHFFFAOYSA-N']
benzothiazole_cation->neut,1.2,benzothiazole,10.1002/jcc.23068,['[H]c1nc2c([H])c([H])c([H])c([H])c2s1'],['[#6]12:[#6](:[#6](:[#6](:[#6](:[#6]:1-[H])-[H])-[H])-[H]):[#7]:[#6](-[H]):[#16]:2'],['InChI=1S/C7H5NS/c1-2-4-7-6(3-1)8-5-9-7/h1-5H'],['IOJUPLGTWVMSFF-UHFFFAOYSA-N']
benzotriazole_cation->neut,0.42,benzotriazole,10.1002/ejoc.201700749,"['[H]c1c([H])c([H])c2nn([H])nc2c1[H]', '[H]c1c([H])c([H])c2c(nnn2[H])c1[H]']","['[#6]12:[#6](:[#6](:[#6](:[#6](:[#6]:1-[H])-[H])-[H])-[H]):[#7]:[#7](:[#7]:2)-[H]', '[#6]12:[#6](:[#6](:[#6](:[#6](:[#6]:1-[H])-[H])-[H])-[H]):[#7](-[H]):[#7]:[#7]:2']","['InChI=1S/C6H5N3/c1-2-4-6-5(3-1)7-9-8-6/h1-4H,(H,7,8,9)']",['QRUDEWIWKLJBPS-UHFFFAOYSA-N']
benzotriazoleoxime_neut->an,5.65,benzotriazole n-oxide,"J.Chem.Soc.Pak., Vol. 33, No. 3, 2011, 324-332","['[H]c1c([H])c([H])c2c(n[n+]([H])n2[O-])c1[H]', '[H]c1c([H])c([H])c2c(c1[H])n([O-])n[n+]2[H]', '[H]On1nnc2c([H])c([H])c([H])c([H])c21']","['[#6]12:[#6](:[#6](:[#6](:[#6](:[#6]:1-[H])-[H])-[H])-[H]):[#7]:[#7+](:[#7]:2-[#8-])-[H]', '[#6]12:[#6](:[#6](:[#6](:[#6](:[#6]:1-[H])-[H])-[H])-[H]):[#7+](:[#7]:[#7]:2-[#8-])-[H]', '[#6]12:[#6](:[#6](:[#6](:[#6](:[#6]:1-[H])-[H])-[H])-[H]):[#7]:[#7]:[#7]:2-[#8]-[H]']","['InChI=1S/C6H4N3O/c10-9-6-4-2-1-3-5(6)7-8-9/h1-4H/q-1/p+1', 'InChI=1S/C6H5N3O/c10-9-6-4-2-1-3-5(6)7-8-9/h1-4,10H']","['VGZMHTGJWOPMTH-UHFFFAOYSA-O', 'ASOKPJOREAFHNY-UHFFFAOYSA-N']"
benzoxazole_cation->neut,0.5,benzoxazole,10.1002/jhet.5570210156,['[H]c1nc2c([H])c([H])c([H])c([H])c2o1'],['[#6]12:[#6](:[#6](:[#6](:[#6](:[#6]:1-[H])-[H])-[H])-[H]):[#7]:[#6](-[H]):[#8]:2'],['InChI=1S/C7H5NO/c1-2-4-7-6(3-1)8-5-9-7/h1-5H'],['BCMCBBGGLRIHSE-UHFFFAOYSA-N']
benzylalcohol_neut->an,15.4,benzylalcohol,DOI: 10.1021/acs.jpca.7b03907,['[H]OC([H])([H])c1c([H])c([H])c([H])c([H])c1[H]'],['[#6]1(:[#6](:[#6](:[#6](:[#6](:[#6]:1-[H])-[H])-[H])-[#6@@](-[H])(-[H])-[#8]-[H])-[H])-[H]'],"['InChI=1S/C7H8O/c8-6-7-4-2-1-3-5-7/h1-5,8H,6H2']",['WVDDGKGOMKODPV-UHFFFAOYSA-N']
benzylamine_cation->neut,9.38,benzylamine,doi.org/10.1039/jr9640003588?,['[H]c1c([H])c([H])c(C([H])([H])N([H])[H])c([H])c1[H]'],['[#6]1(:[#6](:[#6](:[#6](:[#6](:[#6]:1-[H])-[H])-[H])-[#6@@](-[H])(-[H])-[#7](-[H])-[H])-[H])-[H]'],"['InChI=1S/C7H9N/c8-6-7-4-2-1-3-5-7/h1-5H,6,8H2']",['WGQKYBSKWIADBV-UHFFFAOYSA-N']
benzylmethylamine_cation->neut,9.58,benzylmethylamine,10.1002/jcc.23068,['[H]c1c([H])c([H])c(C([H])([H])N([H])C([H])([H])[H])c([H])c1[H]'],['[#6]1(:[#6](:[#6](:[#6](:[#6](:[#6]:1-[H])-[H])-[H])-[#6@@](-[H])(-[H])-[#7](-[H])-[#6@@](-[H])(-[H])-[H])-[H])-[H]'],"['InChI=1S/C8H11N/c1-9-7-8-5-3-2-4-6-8/h2-6,9H,7H2,1H3']",['RIWRFSMVIUAEBX-UHFFFAOYSA-N']
betaeucaine_cation->neut,9.35,"[(4S,6R)-2,2,6-trimethylpiperidin-4-yl] benzoate",Lange's handbook of chemistry,['[H]c1c([H])c([H])c(C(=O)O[C@]2([H])C([H])([H])C(C([H])([H])[H])(C([H])([H])[H])N([H])[C@]([H])(C([H])([H])[H])C2([H])[H])c([H])c1[H]'],['[#8](-[#6@@]1(-[#6@@](-[#6@@](-[#7](-[#6@@](-[#6@]-1(-[H])-[H])(-[#6@@](-[H])(-[H])-[H])-[H])-[H])(-[#6@@](-[H])(-[H])-[H])-[#6@@](-[H])(-[H])-[H])(-[H])-[H])-[H])-[#6](=[#8])-[#6]1:[#6](:[#6](:[#6](:[#6](:[#6]:1-[H])-[H])-[H])-[H])-[H]'],"['InChI=1S/C15H21NO2/c1-11-9-13(10-15(2,3)16-11)18-14(17)12-7-5-4-6-8-12/h4-8,11,13,16H,9-10H2,1-3H3/t11-,13+/m1/s1']",['ZYHGIAPHLSTGMX-YPMHNXCESA-N']
betaine_cation->neut,1.83,betaine,Lange's handbook of chemistry,['[H]C([H])([H])[N+](C([H])([H])[H])(C([H])([H])[H])C([H])([H])C(=O)[O-]'],['[#8]=[#6](-[#8-])-[#6@](-[#7@@+](-[#6@@](-[H])(-[H])-[H])(-[#6@@](-[H])(-[H])-[H])-[#6@@](-[H])(-[H])-[H])(-[H])-[H]'],"['InChI=1S/C5H11NO2/c1-6(2,3)4-5(7)8/h4H2,1-3H3']",['KWIUHFFTVRNATP-UHFFFAOYSA-N']
bromoacetic_neut->an,2.9,bromoacetic acid,Lange's handbook of chemistry,['[H]OC(=O)C([H])([H])Br'],['[#6](=[#8])(-[#8]-[H])-[#6@@](-[H])(-[H])-[#35]'],"['InChI=1S/C2H3BrO2/c3-1-2(4)5/h1H2,(H,4,5)']",['KDPAWGWELVVRCH-UHFFFAOYSA-N']
bromomethylphosphonic_an->2an,6.52,(Bromomethyl)phosphonic acid,10.1021/ja01118a510,['[H]OP(=O)(O[H])C([H])([H])Br'],['[#8](-[#15@](-[#8]-[H])(=[#8])-[#6@@](-[H])(-[H])-[#35])-[H]'],"['InChI=1S/CH4BrO3P/c2-1-6(3,4)5/h1H2,(H2,3,4,5)']",['OYWFWDQOWQBTHK-UHFFFAOYSA-N']
bromomethylphosphonic_neut->an,1.14,(Bromomethyl)phosphonic acid,10.1021/ja01118a510,['[H]OP(=O)(O[H])C([H])([H])Br'],['[#8](-[#15@](-[#8]-[H])(=[#8])-[#6@@](-[H])(-[H])-[#35])-[H]'],"['InChI=1S/CH4BrO3P/c2-1-6(3,4)5/h1H2,(H2,3,4,5)']",['OYWFWDQOWQBTHK-UHFFFAOYSA-N']
bromotetrazole_neut->an,2.13,5-bromotetrazole,"G. KORTUM, W. VOGEL and K. ANDRUSSOW, DISSOCIATION CONSTANTS OF ORGANIC ACIDS IN AQUEOUS SOLUTION ","['[H]n1nnnc1Br', '[H]n1nnc(Br)n1']","['[#1]-[#7]1:[#6](:[#7]:[#7]:[#7]:1)-[#35]', '[#7]1:[#6](:[#7]:[#7](:[#7]:1)-[H])-[#35]']","['InChI=1S/CHBrN4/c2-1-3-5-6-4-1/h(H,3,4,5,6)']",['HFULRRXNTBESRB-UHFFFAOYSA-N']
brtetronic_neut->an,2.23,2-bromotetronic acid,"G. KORTUM, W. VOGEL and K. ANDRUSSOW, DISSOCIATION CONSTANTS OF ORGANIC ACIDS IN AQUEOUS SOLUTION ","['[H]OC1=C([H])C(=O)O[C@@]1([H])Br', '[H]OC1=C([H])C(=O)[C@]([H])(Br)O1']","['[H]-[#6@@]1(-[#6](=[#6](-[H])-[#6](-[#8]-1)=[#8])-[#8]-[H])-[#35]', '[H]-[#6@@]1(-[#6](-[#6](-[H])=[#6](-[#8]-1)-[#8]-[H])=[#8])-[#35]']","['InChI=1S/C4H3BrO3/c5-4-2(6)1-3(7)8-4/h1,4,6H/t4-/m1/s1', 'InChI=1S/C4H3BrO3/c5-4-2(6)1-3(7)8-4/h1,4,7H/t4-/m1/s1']","['OZVWVWKCMFMQEO-SCSAIBSYSA-N', 'JCRROHQXDHKUEM-SCSAIBSYSA-N']"
caffeine_cation->neut,0.6,caffeine,10.1177/106002807801200906,['[H]c1nc2c(c(=O)n(C([H])([H])[H])c(=O)n2C([H])([H])[H])n1C([H])([H])[H]'],['[#6]12:[#6](:[#7](:[#6](:[#7](:[#6]:1=[#8])-[#6@@](-[H])(-[H])-[H])=[#8])-[#6@@](-[H])(-[H])-[H]):[#7]:[#6](:[#7]:2-[#6@@](-[H])(-[H])-[H])-[H]'],"['InChI=1S/C8H10N4O2/c1-10-4-9-6-5(10)7(13)12(3)8(14)11(6)2/h4H,1-3H3']",['RYYVLZVUVIJVGH-UHFFFAOYSA-N']
canaline_2cation->cation,2.4,canaline,Lange's handbook of chemistry,['[H]N([H])OC([H])([H])C([H])([H])[C@@]([H])(C(=O)[O-])[N+]([H])([H])[H]'],['[#8](-[#7](-[H])-[H])-[#6@](-[#6@@](-[#6@](-[#7@+](-[H])(-[H])-[H])(-[#6](=[#8])-[#8-])-[H])(-[H])-[H])(-[H])-[H]'],"['InChI=1S/C4H10N2O3/c5-3(4(7)8)1-2-9-6/h3H,1-2,5-6H2,(H,7,8)/t3-/m0/s1']",['FQPGMQABJNQLLF-VKHMYHEASA-N']
canaline_cation->neut,3.7,canaline,Lange's handbook of chemistry,['[H]N([H])OC([H])([H])C([H])([H])[C@@]([H])(C(=O)[O-])[N+]([H])([H])[H]'],['[#8](-[#7](-[H])-[H])-[#6@](-[#6@@](-[#6@](-[#7@+](-[H])(-[H])-[H])(-[#6](=[#8])-[#8-])-[H])(-[H])-[H])(-[H])-[H]'],"['InChI=1S/C4H10N2O3/c5-3(4(7)8)1-2-9-6/h3H,1-2,5-6H2,(H,7,8)/t3-/m0/s1']",['FQPGMQABJNQLLF-VKHMYHEASA-N']