compn,pKa,correct name,reference,smiles,smarts,inchi,inchiKey
cyclobutan13transdicarboxylic_an->2an,5.28,"trans-cyclobutane-1,3-dicarboxylic acid",Lange's handbook of chemistry,['[H]OC(=O)[C@]1([H])C([H])([H])[C@@]([H])(C(=O)O[H])C1([H])[H]'],['[H]-[#6@]1(-[#6@](-[#6@@](-[#6@]-1(-[H])-[H])(-[H])-[#6](=[#8])-[#8]-[H])(-[H])-[H])-[#6](=[#8])-[#8]-[H]'],"['InChI=1S/C6H8O4/c7-5(8)3-1-4(2-3)6(9)10/h3-4H,1-2H2,(H,7,8)(H,9,10)/t3-,4-']",['WYHYNUWZLKTEEY-JPYJGEKTSA-N']
cyclobutancarboxylic_neut->an,4.79,cyclobutanecarboxylic acid,Lange's handbook of chemistry,['[H]OC(=O)C1([H])C([H])([H])C([H])([H])C1([H])[H]'],['[H]-[#6@]1(-[#6@](-[#6@](-[#6@]-1(-[H])-[#6](=[#8])-[#8]-[H])(-[H])-[H])(-[H])-[H])-[H]'],"['InChI=1S/C5H8O2/c6-5(7)4-2-1-3-4/h4H,1-3H2,(H,6,7)']",['TXWOGHSRPAYOML-UHFFFAOYSA-N']
cyclohexan14transdicarboxylic_neut->an,4.18,"trans-cyclohexane-1,4-dicarboxylic acid",Lange's handbook of chemistry,['[H]OC(=O)[C@]1([H])C([H])([H])C([H])([H])[C@@]([H])(C(=O)O[H])C([H])([H])C1([H])[H]'],['[H]-[#6@]1(-[#6@@](-[#6@](-[#6@](-[#6@](-[#6@@]-1(-[H])-[#6](=[#8])-[#8]-[H])(-[H])-[H])(-[H])-[H])(-[H])-[#6](=[#8])-[#8]-[H])(-[H])-[H])-[H]'],"['InChI=1S/C8H12O4/c9-7(10)5-1-2-6(4-3-5)8(11)12/h5-6H,1-4H2,(H,9,10)(H,11,12)/t5-,6-']",['PXGZQGDTEZPERC-IZLXSQMJSA-N']
cyclohexan14transdicarboxylic_an->2an,5.42,"trans-cyclohexane-1,4-dicarboxylic acid",Lange's handbook of chemistry,['[H]OC(=O)[C@]1([H])C([H])([H])C([H])([H])[C@@]([H])(C(=O)O[H])C([H])([H])C1([H])[H]'],['[H]-[#6@]1(-[#6@@](-[#6@](-[#6@](-[#6@](-[#6@@]-1(-[H])-[#6](=[#8])-[#8]-[H])(-[H])-[H])(-[H])-[H])(-[H])-[#6](=[#8])-[#8]-[H])(-[H])-[H])-[H]'],"['InChI=1S/C8H12O4/c9-7(10)5-1-2-6(4-3-5)8(11)12/h5-6H,1-4H2,(H,9,10)(H,11,12)/t5-,6-']",['PXGZQGDTEZPERC-IZLXSQMJSA-N']
cyclohexan1amino1carboxylic_neut->an,10.03,1-aminocyclohexane-1-carboxylic acid,"G. KORTUM, W. VOGEL and K. ANDRUSSOW, DISSOCIATION CONSTANTS OF ORGANIC ACIDS IN AQUEOUS SOLUTION ",['[H]C1([H])C([H])([H])C([H])([H])C(C(=O)[O-])([N+]([H])([H])[H])C([H])([H])C1([H])[H]'],['[H]-[#6@]1(-[#6@@](-[#6@](-[#6@](-[#6@](-[#6@]-1(-[#6](=[#8])-[#8-])-[#7@@+](-[H])(-[H])-[H])(-[H])-[H])(-[H])-[H])(-[H])-[H])(-[H])-[H])-[H]'],"['InChI=1S/C7H13NO2/c8-7(6(9)10)4-2-1-3-5-7/h1-5,8H2,(H,9,10)']",['WOXWUZCRWJWTRT-UHFFFAOYSA-N']
cyclohexan1amino1carboxylic_cation->neut,2.65,1-aminocyclohexane-1-carboxylic acid,"G. KORTUM, W. VOGEL and K. ANDRUSSOW, DISSOCIATION CONSTANTS OF ORGANIC ACIDS IN AQUEOUS SOLUTION ",['[H]C1([H])C([H])([H])C([H])([H])C(C(=O)[O-])([N+]([H])([H])[H])C([H])([H])C1([H])[H]'],['[H]-[#6@]1(-[#6@@](-[#6@](-[#6@](-[#6@](-[#6@]-1(-[#6](=[#8])-[#8-])-[#7@@+](-[H])(-[H])-[H])(-[H])-[H])(-[H])-[H])(-[H])-[H])(-[H])-[H])-[H]'],"['InChI=1S/C7H13NO2/c8-7(6(9)10)4-2-1-3-5-7/h1-5,8H2,(H,9,10)']",['WOXWUZCRWJWTRT-UHFFFAOYSA-N']
cyclohexan2amino1carboxylic_neut->an,10.21,trans-2-amino-1-cyclohexanecarboxylic acid,"G. KORTUM, W. VOGEL and K. ANDRUSSOW, DISSOCIATION CONSTANTS OF ORGANIC ACIDS IN AQUEOUS SOLUTION ",['[H]C1([H])C([H])([H])C([H])([H])[C@@]([H])([N+]([H])([H])[H])[C@]([H])(C(=O)[O-])C1([H])[H]'],['[H]-[#6@]1(-[#6@](-[#6@@](-[#6@](-[#6@@](-[#6@]-1(-[H])-[#7@@+](-[H])(-[H])-[H])(-[H])-[#6](=[#8])-[#8-])(-[H])-[H])(-[H])-[H])(-[H])-[H])-[H]'],"['InChI=1S/C7H13NO2/c8-6-4-2-1-3-5(6)7(9)10/h5-6H,1-4,8H2,(H,9,10)/t5-,6-/m1/s1']",['USQHEVWOPJDAAX-PHDIDXHHSA-N']
cyclohexan2amino1carboxylic_cation->neut,3.56,trans-2-amino-1-cyclohexanecarboxylic acid,"G. KORTUM, W. VOGEL and K. ANDRUSSOW, DISSOCIATION CONSTANTS OF ORGANIC ACIDS IN AQUEOUS SOLUTION ",['[H]C1([H])C([H])([H])C([H])([H])[C@@]([H])([N+]([H])([H])[H])[C@]([H])(C(=O)[O-])C1([H])[H]'],['[H]-[#6@]1(-[#6@](-[#6@@](-[#6@](-[#6@@](-[#6@]-1(-[H])-[#7@@+](-[H])(-[H])-[H])(-[H])-[#6](=[#8])-[#8-])(-[H])-[H])(-[H])-[H])(-[H])-[H])-[H]'],"['InChI=1S/C7H13NO2/c8-6-4-2-1-3-5(6)7(9)10/h5-6H,1-4,8H2,(H,9,10)/t5-,6-/m1/s1']",['USQHEVWOPJDAAX-PHDIDXHHSA-N']
cyclohexylamine_cation->neut,10.64,cyclohexylamine,Lange's handbook of chemistry,['[H]N([H])C1([H])C([H])([H])C([H])([H])C([H])([H])C([H])([H])C1([H])[H]'],['[H]-[#6@]1(-[#6@@](-[#6@](-[#6@](-[#6@](-[#6@@]-1(-[H])-[#7](-[H])-[H])(-[H])-[H])(-[H])-[H])(-[H])-[H])(-[H])-[H])-[H]'],"['InChI=1S/C6H13N/c7-6-4-2-1-3-5-6/h6H,1-5,7H2']",['PAFZNILMFXTMIY-UHFFFAOYSA-N']
cyclopentan11dicarboxylic_neut->an,3.09,"cyclopentane-1,1-dicarboxylic acid",https://doi.org/10.1016/0022-1902(72)80587-6,['[H]OC(=O)C1(C(=O)O[H])C([H])([H])C([H])([H])C([H])([H])C1([H])[H]'],"['[H]-[#6@@]1(-[#6@](-[#6@](-[#6@](-[#6@]-1(-[H])-[H])(-[H])-[H])(-[H])-[H])(-[#6](=[#8])-[#8]-[H])-[#6](=[#8])-[#8]-[H])-[H]', '[H]-[#6@@]1(-[#6@@](-[#6@](-[#6@](-[#6@]-1(-[H])-[H])(-[H])-[H])(-[H])-[H])(-[#6](=[#8])-[#8]-[H])-[#6](=[#8])-[#8]-[H])-[H]']","['InChI=1S/C7H10O4/c8-5(9)7(6(10)11)3-1-2-4-7/h1-4H2,(H,8,9)(H,10,11)']",['YZFOGXKZTWZVFN-UHFFFAOYSA-N']
cyclopentan11dicarboxylic_an->2an,5.8,"cyclopentane-1,1-dicarboxylic acid",https://doi.org/10.1016/0022-1902(72)80587-6,['[H]OC(=O)C1(C(=O)O[H])C([H])([H])C([H])([H])C([H])([H])C1([H])[H]'],"['[H]-[#6@@]1(-[#6@](-[#6@](-[#6@](-[#6@]-1(-[H])-[H])(-[H])-[H])(-[H])-[H])(-[#6](=[#8])-[#8]-[H])-[#6](=[#8])-[#8]-[H])-[H]', '[H]-[#6@@]1(-[#6@@](-[#6@](-[#6@](-[#6@]-1(-[H])-[H])(-[H])-[H])(-[H])-[H])(-[#6](=[#8])-[#8]-[H])-[#6](=[#8])-[#8]-[H])-[H]']","['InChI=1S/C7H10O4/c8-5(9)7(6(10)11)3-1-2-4-7/h1-4H2,(H,8,9)(H,10,11)']",['YZFOGXKZTWZVFN-UHFFFAOYSA-N']
cyclopentan12transdicarboxylic_neut->an,3.96,"trans-1,2-cyclopentane dicarboxylic acid",Lange's handbook of chemistry,['[H]OC(=O)[C@]1([H])C([H])([H])C([H])([H])C([H])([H])[C@@]1([H])C(=O)O[H]'],['[H]-[#6@]1(-[#6@](-[#6@@](-[#6@@](-[#6@@]-1(-[H])-[#6](=[#8])-[#8]-[H])(-[H])-[H])(-[H])-[H])(-[H])-[H])-[#6](=[#8])-[#8]-[H]'],"['InChI=1S/C7H10O4/c8-6(9)4-2-1-3-5(4)7(10)11/h4-5H,1-3H2,(H,8,9)(H,10,11)/t4-,5-/m1/s1']",['ASJCSAKCMTWGAH-RFZPGFLSSA-N']
cyclopentan12transdicarboxylic_an->2an,5.85,"trans-1,2-cyclopentane dicarboxylic acid",Lange's handbook of chemistry,['[H]OC(=O)[C@]1([H])C([H])([H])C([H])([H])C([H])([H])[C@@]1([H])C(=O)O[H]'],['[H]-[#6@]1(-[#6@](-[#6@@](-[#6@@](-[#6@@]-1(-[H])-[#6](=[#8])-[#8]-[H])(-[H])-[H])(-[H])-[H])(-[H])-[H])-[#6](=[#8])-[#8]-[H]'],"['InChI=1S/C7H10O4/c8-6(9)4-2-1-3-5(4)7(10)11/h4-5H,1-3H2,(H,8,9)(H,10,11)/t4-,5-/m1/s1']",['ASJCSAKCMTWGAH-RFZPGFLSSA-N']
cyclopentan13cisdicarboxylic_neut->an,4.23,"cis-cyclopentane-1,3-dicarboxylic acid",10.1021/jo302049z,['[H]OC(=O)[C@@]1([H])C([H])([H])C([H])([H])[C@@]([H])(C(=O)O[H])C1([H])[H]'],['[H]-[#6@]1(-[#6@](-[#6@@](-[#6@](-[#6@@]-1(-[H])-[H])(-[H])-[#6](=[#8])-[#8]-[H])(-[H])-[H])(-[H])-[H])-[#6](=[#8])-[#8]-[H]'],"['InChI=1S/C7H10O4/c8-6(9)4-1-2-5(3-4)7(10)11/h4-5H,1-3H2,(H,8,9)(H,10,11)/t4-,5+']",['LNGJOYPCXLOTKL-SYDPRGILSA-N']
cyclopentan13cisdicarboxylic_an->2an,5.53,"cis-cyclopentane-1,3-dicarboxylic acid",10.1021/jo302049z,['[H]OC(=O)[C@@]1([H])C([H])([H])C([H])([H])[C@@]([H])(C(=O)O[H])C1([H])[H]'],['[H]-[#6@]1(-[#6@](-[#6@@](-[#6@](-[#6@@]-1(-[H])-[H])(-[H])-[#6](=[#8])-[#8]-[H])(-[H])-[H])(-[H])-[H])-[#6](=[#8])-[#8]-[H]'],"['InChI=1S/C7H10O4/c8-6(9)4-1-2-5(3-4)7(10)11/h4-5H,1-3H2,(H,8,9)(H,10,11)/t4-,5+']",['LNGJOYPCXLOTKL-SYDPRGILSA-N']
cyclopentan13transdicarboxylic_neut->an,4.32,"trans-cyclopentane-1,3-dicarboxylic acid",Lange's handbook of chemistry,['[H]OC(=O)[C@]1([H])C([H])([H])C([H])([H])[C@@]([H])(C(=O)O[H])C1([H])[H]'],['[H]-[#6@]1(-[#6@](-[#6@@](-[#6@@](-[#6@@]-1(-[H])-[H])(-[H])-[#6](=[#8])-[#8]-[H])(-[H])-[H])(-[H])-[H])-[#6](=[#8])-[#8]-[H]'],"['InChI=1S/C7H10O4/c8-6(9)4-1-2-5(3-4)7(10)11/h4-5H,1-3H2,(H,8,9)(H,10,11)/t4-,5-/m1/s1']",['LNGJOYPCXLOTKL-RFZPGFLSSA-N']
cyclopentan13transdicarboxylic_an->2an,5.42,"trans-cyclopentane-1,3-dicarboxylic acid",Lange's handbook of chemistry,['[H]OC(=O)[C@]1([H])C([H])([H])C([H])([H])[C@@]([H])(C(=O)O[H])C1([H])[H]'],['[H]-[#6@]1(-[#6@](-[#6@@](-[#6@@](-[#6@@]-1(-[H])-[H])(-[H])-[#6](=[#8])-[#8]-[H])(-[H])-[H])(-[H])-[H])-[#6](=[#8])-[#8]-[H]'],"['InChI=1S/C7H10O4/c8-6(9)4-1-2-5(3-4)7(10)11/h4-5H,1-3H2,(H,8,9)(H,10,11)/t4-,5-/m1/s1']",['LNGJOYPCXLOTKL-RFZPGFLSSA-N']
cyclopentylamine_cation->neut,10.65,cyclopentylamine,Lange's handbook of chemistry,['[H]N([H])C1([H])C([H])([H])C([H])([H])C([H])([H])C1([H])[H]'],['[#7](-[#6@]1(-[#6@](-[#6@](-[#6@@](-[#6@@]-1(-[H])-[H])(-[H])-[H])(-[H])-[H])(-[H])-[H])-[H])(-[H])-[H]'],"['InChI=1S/C5H11N/c6-5-3-1-2-4-5/h5H,1-4,6H2']",['NISGSNTVMOOSJQ-UHFFFAOYSA-N']
cyclopropan11dicarboxylic_neut->an,1.68,"cyclopropane-1,1-dicarboxylic acid",https://doi.org/10.1016/0022-1902(72)80587-6,['[H]OC(=O)C1(C(=O)O[H])C([H])([H])C1([H])[H]'],['[H]-[#6@]1(-[#6@@](-[#6@@]-1(-[H])-[H])(-[#6](=[#8])-[#8]-[H])-[#6](=[#8])-[#8]-[H])-[H]'],"['InChI=1S/C5H6O4/c6-3(7)5(1-2-5)4(8)9/h1-2H2,(H,6,7)(H,8,9)']",['FDKLLWKMYAMLIF-UHFFFAOYSA-N']
cyclopropan11dicarboxylic_an->2an,7.22,"cyclopropane-1,1-dicarboxylic acid",https://doi.org/10.1016/0022-1902(72)80587-6,['[H]OC(=O)C1(C(=O)O[H])C([H])([H])C1([H])[H]'],['[H]-[#6@]1(-[#6@@](-[#6@@]-1(-[H])-[H])(-[#6](=[#8])-[#8]-[H])-[#6](=[#8])-[#8]-[H])-[H]'],"['InChI=1S/C5H6O4/c6-3(7)5(1-2-5)4(8)9/h1-2H2,(H,6,7)(H,8,9)']",['FDKLLWKMYAMLIF-UHFFFAOYSA-N']
cyclopropan12cisdicarboxylic_neut->an,3.33,"cis-cyclopropane-1,2-dicarboxylic acid",Lange's handbook of chemistry,['[H]OC(=O)[C@@]1([H])C([H])([H])[C@@]1([H])C(=O)O[H]'],['[H]-[#6@]1(-[#6@](-[#6@]-1(-[H])-[#6](=[#8])-[#8]-[H])(-[H])-[#6](=[#8])-[#8]-[H])-[H]'],"['InChI=1S/C5H6O4/c6-4(7)2-1-3(2)5(8)9/h2-3H,1H2,(H,6,7)(H,8,9)/t2-,3+']",['RLWFMZKPPHHHCB-WSOKHJQSSA-N']
cyclopropan12cisdicarboxylic_an->2an,6.47,"cis-cyclopropane-1,2-dicarboxylic acid",Lange's handbook of chemistry,['[H]OC(=O)[C@@]1([H])C([H])([H])[C@@]1([H])C(=O)O[H]'],['[H]-[#6@]1(-[#6@](-[#6@]-1(-[H])-[#6](=[#8])-[#8]-[H])(-[H])-[#6](=[#8])-[#8]-[H])-[H]'],"['InChI=1S/C5H6O4/c6-4(7)2-1-3(2)5(8)9/h2-3H,1H2,(H,6,7)(H,8,9)/t2-,3+']",['RLWFMZKPPHHHCB-WSOKHJQSSA-N']
cyclopropan12transdicarboxylic_neut->an,3.65,"trans-cyclopropane-1,2-dicarboxylic acid",Lange's handbook of chemistry,['[H]OC(=O)[C@@]1([H])C([H])([H])[C@]1([H])C(=O)O[H]'],['[H]-[#6@]1(-[#6@](-[#6@@]-1(-[H])-[#6](=[#8])-[#8]-[H])(-[H])-[#6](=[#8])-[#8]-[H])-[H]'],"['InChI=1S/C5H6O4/c6-4(7)2-1-3(2)5(8)9/h2-3H,1H2,(H,6,7)(H,8,9)/t2-,3-/m0/s1']",['RLWFMZKPPHHHCB-HRFVKAFMSA-N']
cyclopropan12transdicarboxylic_an->2an,5.13,"trans-cyclopropane-1,2-dicarboxylic acid",Lange's handbook of chemistry,['[H]OC(=O)[C@@]1([H])C([H])([H])[C@]1([H])C(=O)O[H]'],['[H]-[#6@]1(-[#6@](-[#6@@]-1(-[H])-[#6](=[#8])-[#8]-[H])(-[H])-[#6](=[#8])-[#8]-[H])-[H]'],"['InChI=1S/C5H6O4/c6-4(7)2-1-3(2)5(8)9/h2-3H,1H2,(H,6,7)(H,8,9)/t2-,3-/m0/s1']",['RLWFMZKPPHHHCB-HRFVKAFMSA-N']
cyclopropancarboxylic_neut->an,4.83,cyclopropanecarboxylic acid,Lange's handbook of chemistry,['[H]OC(=O)C1([H])C([H])([H])C1([H])[H]'],['[H]-[#6@]1(-[#6@](-[#6@]-1(-[H])-[#6](=[#8])-[#8]-[H])(-[H])-[H])-[H]'],"['InChI=1S/C4H6O2/c5-4(6)3-1-2-3/h3H,1-2H2,(H,5,6)']",['YMGUBTXCNDTFJI-UHFFFAOYSA-N']
cysteine_an->2an,10.76,cysteine ,doi.org/10.1039/J19690001212,['[H]SC([H])([H])[C@@]([H])(C(=O)[O-])[N+]([H])([H])[H]'],['[H]-[#7@@](-[H])(-[H])-[#6@](-[#6@](-[H])(-[H])-[#16]-[H])(-[H])-[#6](=[#8])-[#8-]'],"['InChI=1S/C3H7NO2S/c4-2(1-7)3(5)6/h2,7H,1,4H2,(H,5,6)/t2-/m0/s1']",['XUJNEKJLAYXESH-REOHCLBHSA-N']
cysteine_cation->neut,1.98,cysteine ,https://doi.org/10.1139/v83-250,['[H]SC([H])([H])[C@@]([H])(C(=O)[O-])[N+]([H])([H])[H]'],['[H]-[#7@@](-[H])(-[H])-[#6@](-[#6@](-[H])(-[H])-[#16]-[H])(-[H])-[#6](=[#8])-[#8-]'],"['InChI=1S/C3H7NO2S/c4-2(1-7)3(5)6/h2,7H,1,4H2,(H,5,6)/t2-/m0/s1']",['XUJNEKJLAYXESH-REOHCLBHSA-N']
cysteine_neut->an,8.38,cysteine ,doi.org/10.1039/J19690001212,['[H]SC([H])([H])[C@@]([H])(C(=O)[O-])[N+]([H])([H])[H]'],['[H]-[#7@@](-[H])(-[H])-[#6@](-[#6@](-[H])(-[H])-[#16]-[H])(-[H])-[#6](=[#8])-[#8-]'],"['InChI=1S/C3H7NO2S/c4-2(1-7)3(5)6/h2,7H,1,4H2,(H,5,6)/t2-/m0/s1']",['XUJNEKJLAYXESH-REOHCLBHSA-N']
cysteamine_cation->neut,8.23,cysteamine,Lange's handbook of chemistry,['[H]SC([H])([H])C([H])([H])N([H])[H]'],['[#16](-[#6@@](-[#6@@](-[#7](-[H])-[H])(-[H])-[H])(-[H])-[H])-[H]'],"['InChI=1S/C2H7NS/c3-1-2-4/h4H,1-3H2']",['UFULAYFCSOUIOV-UHFFFAOYSA-N']
cysteamine_neut->an,10.53,cysteamine,Lange's handbook of chemistry,['[H]SC([H])([H])C([H])([H])N([H])[H]'],['[#16](-[#6@@](-[#6@@](-[#7](-[H])-[H])(-[H])-[H])(-[H])-[H])-[H]'],"['InChI=1S/C2H7NS/c3-1-2-4/h4H,1-3H2']",['UFULAYFCSOUIOV-UHFFFAOYSA-N']
cysteinemethylester_cation->neut,6.38,cysteine methyl ester,https://link.springer.com/content/pdf/10.1007/s10953-006-8934-3.pdf?pdf=button,['[H]SC([H])([H])[C@@]([H])(C(=O)OC([H])([H])[H])N([H])[H]'],['[#16](-[#6@](-[#6@](-[#7](-[H])-[H])(-[#6](-[#8]-[#6@](-[H])(-[H])-[H])=[#8])-[H])(-[H])-[H])-[H]'],"['InChI=1S/C4H9NO2S/c1-7-4(6)3(5)2-8/h3,8H,2,5H2,1H3/t3-/m0/s1']",['MCYHPZGUONZRGO-VKHMYHEASA-N']
cysteinemethylester_neut->an,9.17,cysteine methyl ester,https://link.springer.com/content/pdf/10.1007/s10953-006-8934-3.pdf?pdf=button,['[H]SC([H])([H])[C@@]([H])(C(=O)OC([H])([H])[H])N([H])[H]'],['[#16](-[#6@](-[#6@](-[#7](-[H])-[H])(-[#6](-[#8]-[#6@](-[H])(-[H])-[H])=[#8])-[H])(-[H])-[H])-[H]'],"['InChI=1S/C4H9NO2S/c1-7-4(6)3(5)2-8/h3,8H,2,5H2,1H3/t3-/m0/s1']",['MCYHPZGUONZRGO-VKHMYHEASA-N']
cytosine_cation->neut,4.58,cytosine,Lange's handbook of chemistry,"['[H]c1c(N([H])[H])nc(=O)n([H])c1[H]', '[H]c1nc(=O)n([H])c(N([H])[H])c1[H]']","['[#6]1(:[#6](-[#7](-[H])-[H]):[#7]:[#6](:[#7](:[#6]:1-[H])-[H])=[#8])-[H]', '[#6]1(:[#6](-[#7](-[H])-[H]):[#7](:[#6](:[#7]:[#6]:1-[H])=[#8])-[H])-[H]']","['InChI=1S/C4H5N3O/c5-3-1-2-6-4(8)7-3/h1-2H,(H3,5,6,7,8)']",['OPTASPLRGRRNAP-UHFFFAOYSA-N']
cytosine_neut->an,12.15,cytosine,Lange's handbook of chemistry,"['[H]c1c(N([H])[H])nc(=O)n([H])c1[H]', '[H]c1nc(=O)n([H])c(N([H])[H])c1[H]']","['[#6]1(:[#6](-[#7](-[H])-[H]):[#7]:[#6](:[#7](:[#6]:1-[H])-[H])=[#8])-[H]', '[#6]1(:[#6](-[#7](-[H])-[H]):[#7](:[#6](:[#7]:[#6]:1-[H])=[#8])-[H])-[H]']","['InChI=1S/C4H5N3O/c5-3-1-2-6-4(8)7-3/h1-2H,(H3,5,6,7,8)']",['OPTASPLRGRRNAP-UHFFFAOYSA-N']
DABCO_2cation->cation,2.97,"1,4-Diazabicyclo[2.2.2]octane",doi.org/10.1039/J19690001212,['[H]C1([H])N2C([H])([H])C([H])([H])N(C1([H])[H])C([H])([H])C2([H])[H]'],['[H]-[#6@]1(-[#6@](-[H])(-[H])-[#7]2-[#6@@](-[#6@@](-[H])(-[H])-[#7]-1-[#6@](-[#6@]-2(-[H])-[H])(-[H])-[H])(-[H])-[H])-[H]'],['InChI=1S/C6H12N2/c1-2-8-5-3-7(1)4-6-8/h1-6H2'],['IMNIMPAHZVJRPE-UHFFFAOYSA-N']
DABCO_cation->neut,8.82,"1,4-Diazabicyclo[2.2.2]octane",doi.org/10.1039/J19690001212,['[H]C1([H])N2C([H])([H])C([H])([H])N(C1([H])[H])C([H])([H])C2([H])[H]'],['[H]-[#6@]1(-[#6@](-[H])(-[H])-[#7]2-[#6@@](-[#6@@](-[H])(-[H])-[#7]-1-[#6@](-[#6@]-2(-[H])-[H])(-[H])-[H])(-[H])-[H])-[H]'],['InChI=1S/C6H12N2/c1-2-8-5-3-7(1)4-6-8/h1-6H2'],['IMNIMPAHZVJRPE-UHFFFAOYSA-N']
dibromoacetic_neut->an,1.39,dibromoacetic acid,Lange's handbook of chemistry,['[H]OC(=O)C([H])(Br)Br'],['[#35]-[#6@](-[#35])(-[#6](-[#8]-[H])=[#8])-[H]'],"['InChI=1S/C2H2Br2O2/c3-1(4)2(5)6/h1H,(H,5,6)']",['SIEILFNCEFEENQ-UHFFFAOYSA-N']
dibromosuccinic_neut->an,1.48,dibromosuccinic acid,doi.org/10.1039/JR9590002492,['[H]OC(=O)[C@]([H])(Br)[C@@]([H])(Br)C(=O)O[H]'],['[#35]-[#6@](-[#6@@](-[#35])(-[#6](-[#8]-[H])=[#8])-[H])(-[#6](-[#8]-[H])=[#8])-[H]'],"['InChI=1S/C4H4Br2O4/c5-1(3(7)8)2(6)4(9)10/h1-2H,(H,7,8)(H,9,10)/t1-,2-/m1/s1']",['FJWGRXKOBIVTFA-JCYAYHJZSA-N']
dibromosuccinic_an->2an,3.24,dibromosuccinic acid,doi.org/10.1039/JR9590002492,['[H]OC(=O)[C@]([H])(Br)[C@@]([H])(Br)C(=O)O[H]'],['[#35]-[#6@](-[#6@@](-[#35])(-[#6](-[#8]-[H])=[#8])-[H])(-[#6](-[#8]-[H])=[#8])-[H]'],"['InChI=1S/C4H4Br2O4/c5-1(3(7)8)2(6)4(9)10/h1-2H,(H,7,8)(H,9,10)/t1-,2-/m1/s1']",['FJWGRXKOBIVTFA-JCYAYHJZSA-N']
dichloroacetic_neut->an,1.26,dichloroacetic acid,Lange's handbook of chemistry,['[H]OC(=O)C([H])(Cl)Cl'],['[#6](=[#8])(-[#8]-[H])-[#6@@](-[H])(-[#17])-[#17]'],"['InChI=1S/C2H2Cl2O2/c3-1(4)2(5)6/h1H,(H,5,6)']",['JXTHNDFMNIQAHM-UHFFFAOYSA-N']
dichloromethylphosphonic_an->2an,5.58,dichloromethylphosphonic acid,"D. J. Martin, C. E. Griffin, J.Organomet. Chem. 1, 292 (1964)",['[H]OP(=O)(O[H])C([H])(Cl)Cl'],['[#8](-[#15@](-[#8]-[H])(=[#8])-[#6@](-[H])(-[#17])-[#17])-[H]'],"['InChI=1S/CH3Cl2O3P/c2-1(3)7(4,5)6/h1H,(H2,4,5,6)']",['IXTGXVWLIBNABC-UHFFFAOYSA-N']
dichloromethylphosphonic_neut->an,0.7,dichloromethylphosphonic acid,"M. Wozniak, G. Nowogrock, Bull. Soc. Chim. Gr. (1-4, Pt. 1) 1978, 153",['[H]OP(=O)(O[H])C([H])(Cl)Cl'],['[#8](-[#15@](-[#8]-[H])(=[#8])-[#6@](-[H])(-[#17])-[#17])-[H]'],"['InChI=1S/CH3Cl2O3P/c2-1(3)7(4,5)6/h1H,(H2,4,5,6)']",['IXTGXVWLIBNABC-UHFFFAOYSA-N']
dichlorosuccinic_neut->an,1.68,"(R,R)-2,3-Dichlorosuccinic acid",doi.org/10.1039/JR9590002492,['[H]OC(=O)[C@@]([H])(Cl)[C@]([H])(Cl)C(=O)O[H]'],['[#17]-[#6@@](-[#6@](-[#6](-[#8]-[H])=[#8])(-[H])-[#17])(-[#6](-[#8]-[H])=[#8])-[H]'],"['InChI=1S/C4H4Cl2O4/c5-1(3(7)8)2(6)4(9)10/h1-2H,(H,7,8)(H,9,10)/t1-,2-/m0/s1']",['XSCRWBSKSVOZOK-LWMBPPNESA-N']
dichlorosuccinic_an->2an,3.18,"(R,R)-2,3-Dichlorosuccinic acid",doi.org/10.1039/JR9590002492,['[H]OC(=O)[C@@]([H])(Cl)[C@]([H])(Cl)C(=O)O[H]'],['[#17]-[#6@@](-[#6@](-[#6](-[#8]-[H])=[#8])(-[H])-[#17])(-[#6](-[#8]-[H])=[#8])-[H]'],"['InChI=1S/C4H4Cl2O4/c5-1(3(7)8)2(6)4(9)10/h1-2H,(H,7,8)(H,9,10)/t1-,2-/m0/s1']",['XSCRWBSKSVOZOK-LWMBPPNESA-N']
dicyclohexylamine_cation->neut,11.25,dicyclohexylamine,Lange's handbook of chemistry,['[H]N(C1([H])C([H])([H])C([H])([H])C([H])([H])C([H])([H])C1([H])[H])C1([H])C([H])([H])C([H])([H])C([H])([H])C([H])([H])C1([H])[H]'],['[#7](-[#6@]1(-[#6@](-[#6@](-[#6@@](-[#6@@](-[#6@@]-1(-[H])-[H])(-[H])-[H])(-[H])-[H])(-[H])-[H])(-[H])-[H])-[H])(-[#6@]1(-[#6@](-[#6@](-[#6@@](-[#6@@](-[#6@@]-1(-[H])-[H])(-[H])-[H])(-[H])-[H])(-[H])-[H])(-[H])-[H])-[H])-[H]'],"['InChI=1S/C12H23N/c1-3-7-11(8-4-1)13-12-9-5-2-6-10-12/h11-13H,1-10H2']",['XBPCUCUWBYBCDP-UHFFFAOYSA-N']
dicyclopentylamine_cation->neut,10.93,dicyclopentylamine,Lange's handbook of chemistry,['[H]N(C1([H])C([H])([H])C([H])([H])C([H])([H])C1([H])[H])C1([H])C([H])([H])C([H])([H])C([H])([H])C1([H])[H]'],['[#7](-[#6@]1(-[#6@](-[#6@](-[#6@@](-[#6@@]-1(-[H])-[H])(-[H])-[H])(-[H])-[H])(-[H])-[H])-[H])(-[#6@]1(-[#6@](-[#6@](-[#6@@](-[#6@@]-1(-[H])-[H])(-[H])-[H])(-[H])-[H])(-[H])-[H])-[H])-[H]'],"['InChI=1S/C10H19N/c1-2-6-9(5-1)11-10-7-3-4-8-10/h9-11H,1-8H2']",['FUUUBHCENZGYJA-UHFFFAOYSA-N']
difluoroacetic_neut->an,1.33,difluoroacetic acid,Lange's handbook of chemistry,['[H]OC(=O)C([H])(F)F'],['[#6](=[#8])(-[#8]-[H])-[#6@](-[H])(-[#9])-[#9]'],"['InChI=1S/C2H2F2O2/c3-1(4)2(5)6/h1H,(H,5,6)']",['PBWZKZYHONABLN-UHFFFAOYSA-N']
dihydroxymandelic_neut->an,1.1,dihydroxymaleic acid,Lange's handbook of chemistry,['[H]OC(=O)/C(O[H])=C(/O[H])C(=O)O[H]'],['[#8](/[#6](=[#6](\\[#8]-[H])-[#6](-[#8]-[H])=[#8])-[#6](-[#8]-[H])=[#8])-[H]'],"['InChI=1S/C4H4O6/c5-1(3(7)8)2(6)4(9)10/h5-6H,(H,7,8)(H,9,10)/b2-1-']",['BZCOSCNPHJNQBP-UPHRSURJSA-N']
diisopropylamine_cation->neut,11.12,diisopropylamine,10.1002/jcc.23068,['[H]N(C([H])(C([H])([H])[H])C([H])([H])[H])C([H])(C([H])([H])[H])C([H])([H])[H]'],['[H]-[#6@](-[#6@](-[#6@](-[H])(-[H])-[H])(-[H])-[#7](-[H])-[#6@@](-[#6@@](-[H])(-[H])-[H])(-[#6@](-[H])(-[H])-[H])-[H])(-[H])-[H]'],"['InChI=1S/C6H15N/c1-5(2)7-6(3)4/h5-7H,1-4H3']",['UAOMVDZJSHZZME-UHFFFAOYSA-N']
dimethylamine_cation->neut,10.77,dimethylamine,Lange's handbook of chemistry,['[H]N(C([H])([H])[H])C([H])([H])[H]'],['[#7](-[#6@@](-[H])(-[H])-[H])(-[#6@@](-[H])(-[H])-[H])-[H]'],"['InChI=1S/C2H7N/c1-3-2/h3H,1-2H3']",['ROSDSFDQCJNGOL-UHFFFAOYSA-N']
dimethylaminophenylphosphonic_an->2an,7.35,[4-(dimethylamino)phenyl]phosphonic acid,"G. KORTUM, W. VOGEL and K. ANDRUSSOW, DISSOCIATION CONSTANTS OF ORGANIC ACIDS IN AQUEOUS SOLUTION ",['[H]O[P@](=O)([O-])c1c([H])c([H])c([N+]([H])(C([H])([H])[H])C([H])([H])[H])c([H])c1[H]'],['[#8](-[#15@](=[#8])(-[#8-])-[#6]1:[#6](:[#6](:[#6](:[#6](:[#6]:1-[H])-[H])-[#7@+](-[#6@](-[H])(-[H])-[H])(-[#6@@](-[H])(-[H])-[H])-[H])-[H])-[H])-[H]'],"['InChI=1S/C8H12NO3P/c1-9(2)7-3-5-8(6-4-7)13(10,11)12/h3-6H,1-2H3,(H2,10,11,12)']",['RSAJRKPVJVCGPY-UHFFFAOYSA-N']