compn,pKa,correct name,reference,smiles,smarts,inchi,inchiKey
1234tetrahydronaphtho18ef14diazepine_cation->neut,4.62,"1,2,3,4-tetrahydronaphtho[1,8-ef][1,4]diazepine",doi.org/10.1039/P29870000613,['[H]c1c([H])c2c3c(c([H])c([H])c([H])c3c1[H])N([H])C([H])([H])C([H])([H])N2[H]'],['[#7]1(-[#6]2:[#6]3:[#6](-[#7](-[#6@](-[#6@@]-1(-[H])-[H])(-[H])-[H])-[H]):[#6](:[#6](:[#6](:[#6]:3:[#6](:[#6](:[#6]:2-[H])-[H])-[H])-[H])-[H])-[H])-[H]'],"['InChI=1S/C12H12N2/c1-3-9-4-2-6-11-12(9)10(5-1)13-7-8-14-11/h1-6,13-14H,7-8H2']",['ADJGYTUFXSFZQJ-UHFFFAOYSA-N']
12dimethylhexahydropyridazine_cation->neut,6.66,"1,2-dimethyl-hexyahydropyridazine",doi.org/10.1021/ja00227a004,['[H]C([H])([H])N1N(C([H])([H])[H])C([H])([H])C([H])([H])C([H])([H])C1([H])[H]'],['[#7]1(-[#7](-[#6@](-[#6@](-[#6@@](-[#6@@]-1(-[H])-[H])(-[H])-[H])(-[H])-[H])(-[H])-[H])-[#6@](-[H])(-[H])-[H])-[#6@](-[H])(-[H])-[H]'],"['InChI=1S/C6H14N2/c1-7-5-3-4-6-8(7)2/h3-6H2,1-2H3']",['LPBMSFIXSFTBPY-UHFFFAOYSA-N']
23dimethyl23diazabicyclo221heptane_cation->neut,6.89,"2,3-dimethyl-2,3-diazabicyclo[2.2.1]heptane",doi.org/10.1021/ja00227a004,['[H]C([H])([H])N1N(C([H])([H])[H])[C@]2([H])C([H])([H])C([H])([H])[C@@]1([H])C2([H])[H]'],['[#7]1(-[#7](-[#6@]2(-[#6@](-[#6@@]-1(-[#6@](-[#6@@]-2(-[H])-[H])(-[H])-[H])-[H])(-[H])-[H])-[H])-[#6@](-[H])(-[H])-[H])-[#6@](-[H])(-[H])-[H]'],"['InChI=1S/C7H14N2/c1-8-6-3-4-7(5-6)9(8)2/h6-7H,3-5H2,1-2H3/t6-,7+']",['VAUNORIQTFNCKC-KNVOCYPGSA-N']
tetrahydro36pyridazinedione_neut->an,8.1,"Tetrahydro-3,6-pyridazinedione",doi.org/10.1139/v56-229,['[H]N1C(=O)C([H])([H])C([H])([H])C(=O)N1[H]'],['[#8]=[#6]1-[#7](-[#7](-[#6](=[#8])-[#6@@](-[#6@]-1(-[H])-[H])(-[H])-[H])-[H])-[H]'],"['InChI=1S/C4H6N2O2/c7-3-1-2-4(8)6-5-3/h1-2H2,(H,5,7)(H,6,8)']",['RNCAJLLRSYSZAM-UHFFFAOYSA-N']
21iminotetramethylene2imidazoline_cation->neut,11.26,"2,1-(Iminotetramethylene)-2-imidazoline",doi.org/10.1139/v62-177,"['[H]N1C2=NC([H])([H])C([H])([H])N2C([H])([H])C([H])([H])C([H])([H])C1([H])[H]', '[H]N1C2=NC([H])([H])C([H])([H])C([H])([H])C([H])([H])N2C([H])([H])C1([H])[H]']","['[#7]12-[#6@](-[#6@](-[#6@@](-[#6@@](-[#7](-[#6]-1=[#7]-[#6@](-[#6@]-2(-[H])-[H])(-[H])-[H])-[H])(-[H])-[H])(-[H])-[H])(-[H])-[H])(-[H])-[H]', '[#7]12-[#6@](-[#6@](-[#6@@](-[#6@@](-[#7]=[#6]-1-[#7](-[#6@](-[#6@]-2(-[H])-[H])(-[H])-[H])-[H])(-[H])-[H])(-[H])-[H])(-[H])-[H])(-[H])-[H]']","['InChI=1S/C7H13N3/c1-2-5-10-6-4-9-7(10)8-3-1/h1-6H2,(H,8,9)']",['HBWDWJSRXYGILY-UHFFFAOYSA-N']
16diazabicyclo440decane_cation->neut,6.79,"1,6-Diazabicyclo(4.4.0)decane",doi.org/10.1021/ja00227a004,['[H]C1([H])N2N(C([H])([H])C([H])([H])C1([H])[H])C([H])([H])C([H])([H])C([H])([H])C2([H])[H]'],['[#7]12-[#7](-[#6@](-[#6@](-[#6@@](-[#6@@]-1(-[H])-[H])(-[H])-[H])(-[H])-[H])(-[H])-[H])-[#6@](-[#6@](-[#6@@](-[#6@@]-2(-[H])-[H])(-[H])-[H])(-[H])-[H])(-[H])-[H]'],['InChI=1S/C8H16N2/c1-2-6-10-8-4-3-7-9(10)5-1/h1-8H2'],['RSIWLHLUUQGERP-UHFFFAOYSA-N']
23dimethyl23diazabicyclo222octane_cation->neut,7.14,"2,3-Diazabicyclo(2.2.2)octane,",doi.org/10.1021/ja00227a004,['[H]C([H])([H])N1N(C([H])([H])[H])[C@]2([H])C([H])([H])C([H])([H])[C@@]1([H])C([H])([H])C2([H])[H]'],['[#7]1(-[#7](-[#6@]2(-[#6@@](-[#6@@](-[#6@@]-1(-[#6@](-[#6@]-2(-[H])-[H])(-[H])-[H])-[H])(-[H])-[H])(-[H])-[H])-[H])-[#6@](-[H])(-[H])-[H])-[#6@](-[H])(-[H])-[H]'],"['InChI=1S/C8H16N2/c1-9-7-3-5-8(6-4-7)10(9)2/h7-8H,3-6H2,1-2H3/t7-,8+']",['HIWDJUZJJXARGW-OCAPTIKFSA-N']
quinuclidine4carboxamide_cation->neut,9.47,4-carboxamide-quinuclidine,10.1002/hlca.19850680408,['[H]N([H])C(=O)C12C([H])([H])C([H])([H])N(C([H])([H])C1([H])[H])C([H])([H])C2([H])[H]'],['[#8]=[#6](-[#6@@]12-[#6@](-[#6@@](-[#7](-[#6@](-[#6@@]-1(-[H])-[H])(-[H])-[H])-[#6@](-[#6@@]-2(-[H])-[H])(-[H])-[H])(-[H])-[H])(-[H])-[H])-[#7](-[H])-[H]'],"['InChI=1S/C8H14N2O/c9-7(11)8-1-4-10(5-2-8)6-3-8/h1-6H2,(H2,9,11)']",['IJHIBDLDUXFQNB-UHFFFAOYSA-N']
quinuclidine4chloro_cation->neut,8.78,4-chloro-quinuclidine,10.1002/hlca.19850680408,['[H]C1([H])N2C([H])([H])C([H])([H])C(Cl)(C1([H])[H])C([H])([H])C2([H])[H]'],['[#7]12-[#6@](-[#6@@](-[#6@](-[#6@](-[#6@@]-1(-[H])-[H])(-[H])-[H])(-[#6@](-[#6@@]-2(-[H])-[H])(-[H])-[H])-[#17])(-[H])-[H])(-[H])-[H]'],['InChI=1S/C7H12ClN/c8-7-1-4-9(5-2-7)6-3-7/h1-6H2'],['CHAXYLNTCZVHBJ-UHFFFAOYSA-N']
quinuclidine4cyano_cation->neut,8.23,4-cyano-quinuclidine,10.1002/hlca.19850680408,['[H]C1([H])N2C([H])([H])C([H])([H])C(C#N)(C1([H])[H])C([H])([H])C2([H])[H]'],['[#7]12-[#6@](-[#6@@](-[#6@](-[#6@](-[#6@@]-1(-[H])-[H])(-[H])-[H])(-[#6@](-[#6@@]-2(-[H])-[H])(-[H])-[H])-[#6]#[#7])(-[H])-[H])(-[H])-[H]'],['InChI=1S/C8H12N2/c9-7-8-1-4-10(5-2-8)6-3-8/h1-6H2'],['CEMKLAOKVLRABO-UHFFFAOYSA-N']
quinuclidine4hydroxy_cation->neut,9.53,4-hydroxy-quinuclidine,10.1002/hlca.19850680408,['[H]OC12C([H])([H])C([H])([H])N(C([H])([H])C1([H])[H])C([H])([H])C2([H])[H]'],['[#7]12-[#6@](-[#6@@](-[#6@](-[#6@](-[#6@@]-1(-[H])-[H])(-[H])-[H])(-[#6@](-[#6@@]-2(-[H])-[H])(-[H])-[H])-[#8]-[H])(-[H])-[H])(-[H])-[H]'],"['InChI=1S/C7H13NO/c9-7-1-4-8(5-2-7)6-3-7/h9H,1-6H2']",['RQRSQXFVRUWISR-UHFFFAOYSA-N']
quinuclidine3methyl_cation->neut,11.29,3-methyl-quinuclidine,10.1002/hlca.19850680408,['[H]C1([H])N2C([H])([H])C([H])([H])C([H])(C1([H])[H])[C@]([H])(C([H])([H])[H])C2([H])[H]'],['[#7]12-[#6@](-[#6@@](-[#6@](-[#6@](-[#6@@]-1(-[H])-[H])(-[H])-[H])(-[#6@](-[#6@@]-2(-[H])-[H])(-[H])-[#6@@](-[H])(-[H])-[H])-[H])(-[H])-[H])(-[H])-[H]'],"['InChI=1S/C8H15N/c1-7-6-9-4-2-8(7)3-5-9/h7-8H,2-6H2,1H3/t7-/m1/s1']",['MWBULQNPGVGHKO-SSDOTTSWSA-N']
quinuclidine3hydroxy_cation->neut,9.91,3-hydroxy-quinuclidine,10.1002/hlca.19850680408,['[H]O[C@]1([H])C([H])([H])N2C([H])([H])C([H])([H])C1([H])C([H])([H])C2([H])[H]'],"['[#7]12-[#6@](-[#6@@](-[#6@](-[#6@](-[#6@@]-1(-[H])-[H])(-[H])-[H])(-[#6@](-[#6@@]-2(-[H])-[H])(-[H])-[#8]-[H])-[H])(-[H])-[H])(-[H])-[H]', '[#7]12-[#6@](-[#6@@](-[#6@](-[#6@](-[#6@@]-1(-[H])-[H])(-[H])-[H])(-[#6@](-[#6@]-2(-[H])-[H])(-[H])-[H])-[H])(-[H])-[#8]-[H])(-[H])-[H]']","['InChI=1S/C7H13NO/c9-7-5-8-3-1-6(7)2-4-8/h6-7,9H,1-5H2/t7-/m1/s1']",['IVLICPVPXWEGCA-SSDOTTSWSA-N']
quinuclidine3carboxamide_cation->neut,9.82,3-carboxamide-quinuclidine,10.1002/hlca.19850680408,['[H]N([H])C(=O)[C@]1([H])C([H])([H])N2C([H])([H])C([H])([H])C1([H])C([H])([H])C2([H])[H]'],['[#7]12-[#6@](-[#6@@](-[#6@](-[#6@](-[#6@@]-1(-[H])-[H])(-[H])-[H])(-[#6@](-[#6@@]-2(-[H])-[H])(-[H])-[#6](=[#8])-[#7](-[H])-[H])-[H])(-[H])-[H])(-[H])-[H]'],"['InChI=1S/C8H14N2O/c9-8(11)7-5-10-3-1-6(7)2-4-10/h6-7H,1-5H2,(H2,9,11)/t7-/m1/s1']",['OEFLOIIPWWSINC-SSDOTTSWSA-N']
quinuclidine2chloro_cation->neut,6.98,2-chloro-quinuclidine,10.1002/hlca.19850680408,['[H]C1([H])N2C([H])([H])C([H])([H])C([H])(C1([H])[H])C([H])([H])[C@]2([H])Cl'],['[#7]12-[#6@](-[#6@@](-[#6@](-[#6@](-[#6@@]-1(-[H])-[H])(-[H])-[H])(-[#6@](-[#6@]-2(-[H])-[#17])(-[H])-[H])-[H])(-[H])-[H])(-[H])-[H]'],"['InChI=1S/C7H12ClN/c8-7-5-6-1-3-9(7)4-2-6/h6-7H,1-5H2/t7-/m1/s1']",['BZYQYFBFBXSMHK-SSDOTTSWSA-N']
quinuclidine2cyano_cation->neut,5.85,2-cyano-quinuclidine,10.1002/hlca.19850680408,['[H]C1([H])N2C([H])([H])C([H])([H])C([H])(C1([H])[H])C([H])([H])[C@]2([H])C#N'],['[#7]12-[#6@](-[#6@@](-[#6@](-[#6@](-[#6@@]-1(-[H])-[H])(-[H])-[H])(-[#6@](-[#6@]-2(-[H])-[#6]#[#7])(-[H])-[H])-[H])(-[H])-[H])(-[H])-[H]'],"['InChI=1S/C8H12N2/c9-6-8-5-7-1-3-10(8)4-2-7/h7-8H,1-5H2/t8-/m1/s1']",['NZOYWQFJJHBAAF-MRVPVSSYSA-N']
quinuclidine2methyl_cation->neut,11.33,2-methyl-qunuclidine,10.1002/hlca.19850680408,['[H]C1([H])N2C([H])([H])C([H])([H])C([H])(C1([H])[H])C([H])([H])[C@]2([H])C([H])([H])[H]'],['[#7]12-[#6@](-[#6@@](-[#6@](-[#6@](-[#6@@]-1(-[H])-[H])(-[H])-[H])(-[#6@](-[#6@]-2(-[H])-[#6@@](-[H])(-[H])-[H])(-[H])-[H])-[H])(-[H])-[H])(-[H])-[H]'],"['InChI=1S/C8H15N/c1-7-6-8-2-4-9(7)5-3-8/h7-8H,2-6H2,1H3/t7-/m0/s1']",['VDWODSPSMJMZQI-ZETCQYMHSA-N']
quinuclidine2carboxamide_cation->neut,9.04,2-carboxamide-quinuclidine,10.1002/hlca.19850680408,['[H]N([H])C(=O)[C@]1([H])N2C([H])([H])C([H])([H])C([H])(C([H])([H])C2([H])[H])C1([H])[H]'],['[#7]12-[#6@](-[#6@@](-[#6@](-[#6@](-[#6@@]-1(-[H])-[H])(-[H])-[H])(-[#6@](-[#6@]-2(-[H])-[#6](=[#8])-[#7](-[H])-[H])(-[H])-[H])-[H])(-[H])-[H])(-[H])-[H]'],"['InChI=1S/C8H14N2O/c9-8(11)7-5-6-1-3-10(7)4-2-6/h6-7H,1-5H2,(H2,9,11)/t7-/m1/s1']",['OZCJTNLELXWUTQ-SSDOTTSWSA-N']
quinuclidine4chloromethyl_cation->neut,10.27,4-chloromethyl-quinuclidine,10.1002/hlca.19850680408,['[H]C([H])(Cl)C12C([H])([H])C([H])([H])N(C([H])([H])C1([H])[H])C([H])([H])C2([H])[H]'],['[#7]12-[#6@](-[#6@@](-[#6@](-[#6@](-[#6@@]-1(-[H])-[H])(-[H])-[H])(-[#6@](-[#6@]-2(-[H])-[H])(-[H])-[H])-[#6@@](-[H])(-[H])-[#17])(-[H])-[H])(-[H])-[H]'],['InChI=1S/C8H14ClN/c9-7-8-1-4-10(5-2-8)6-3-8/h1-7H2'],['PXFIDFXVRYOBFQ-UHFFFAOYSA-N']
quinuclidine4acetyl_cation->neut,9.13,4-acetyl-quinuclidine,10.1002/hlca.19850680408,['[H]C([H])([H])C(=O)OC12C([H])([H])C([H])([H])N(C([H])([H])C1([H])[H])C([H])([H])C2([H])[H]'],['[#7]12-[#6@](-[#6@@](-[#6@](-[#6@](-[#6@@]-1(-[H])-[H])(-[H])-[H])(-[#6@](-[#6@]-2(-[H])-[H])(-[H])-[H])-[#8]-[#6](=[#8])-[#6@@](-[H])(-[H])-[H])(-[H])-[H])(-[H])-[H]'],"['InChI=1S/C9H15NO2/c1-8(11)12-9-2-5-10(6-3-9)7-4-9/h2-7H2,1H3']",['XTKZIFBRSPNTJD-UHFFFAOYSA-N']
hexahydropyrazolo12apyrazole_cation->neut,7.91,"Hexahydropyrazolo[1,2-a]pyrazole",doi.org/10.1021/ja00227a004,['[H]C1([H])N2N(C([H])([H])C1([H])[H])C([H])([H])C([H])([H])C2([H])[H]'],['[#7]12-[#7](-[#6@](-[#6@](-[#6@@]-1(-[H])-[H])(-[H])-[H])(-[H])-[H])-[#6@](-[#6@](-[#6@@]-2(-[H])-[H])(-[H])-[H])(-[H])-[H]'],['InChI=1S/C6H12N2/c1-3-7-5-2-6-8(7)4-1/h1-6H2'],['JZRVLNUANYLZKW-UHFFFAOYSA-N']
12dimethylpyrazolidine_cation->neut,6.67,"1,2-dimethyl-pyrazolidine",doi.org/10.1021/ja00227a004,['[H]C([H])([H])N1N(C([H])([H])[H])C([H])([H])C([H])([H])C1([H])[H]'],['[#7]1(-[#7](-[#6@](-[#6@](-[#6@@]-1(-[H])-[H])(-[H])-[H])(-[H])-[H])-[#6@](-[H])(-[H])-[H])-[#6@](-[H])(-[H])-[H]'],"['InChI=1S/C5H12N2/c1-6-4-3-5-7(6)2/h3-5H2,1-2H3']",['DKXPLHOKMGMMQM-UHFFFAOYSA-N']
3fluorobicyclo111pentane1carboxylic_neut->an,3.29,"3-fluro-bicyclo[1,1,1]pentane-1-carboxylic acid",10.1021/jo040236b,['[H]OC(=O)[C@]12C([H])([H])[C@](F)(C1([H])[H])C2([H])[H]'],['[#8](-[#6](=[#8])-[#6@@]12-[#6@](-[#6@@](-[#6@@]-1(-[H])-[H])(-[#6@@]-2(-[H])-[H])-[#9])(-[H])-[H])-[H]'],"['InChI=1S/C6H7FO2/c7-6-1-5(2-6,3-6)4(8)9/h1-3H2,(H,8,9)/t5-,6+']",['CQOUAQUBJPKQON-OLQVQODUSA-N']
3cf3cyclo111pentane1carboxylic_neut->an,3.25,"3-trifluoromethyl-bicyclo[1,1,1]pentane-1-carboxylic acid",10.1021/jo040236b,['[H]OC(=O)[C@]12C([H])([H])[C@](C(F)(F)F)(C1([H])[H])C2([H])[H]'],['[#8](-[#6](=[#8])-[#6@@]12-[#6@](-[#6@@](-[#6@@]-1(-[H])-[H])(-[#6@@]-2(-[H])-[H])-[#6@@](-[#9])(-[#9])-[#9])(-[H])-[H])-[H]'],"['InChI=1S/C7H7F3O2/c8-7(9,10)6-1-5(2-6,3-6)4(11)12/h1-3H2,(H,11,12)/t5-,6+']",['CGISBZCYXGUFNK-OLQVQODUSA-N']
3cyanocyclo111pentane1carboxylic_neut->an,3.21,"3-cyano-bicyclo[1,1,1]pentane-1-carboxylic acid",10.1021/jo040236b,['[H]OC(=O)[C@]12C([H])([H])[C@](C#N)(C1([H])[H])C2([H])[H]'],['[#8](-[#6](=[#8])-[#6@@]12-[#6@](-[#6@@](-[#6@@]-1(-[H])-[H])(-[#6@@]-2(-[H])-[H])-[#6]#[#7])(-[H])-[H])-[H]'],"['InChI=1S/C7H7NO2/c8-4-6-1-7(2-6,3-6)5(9)10/h1-3H2,(H,9,10)/t6-,7+']",['MFBJJYLOKZSNPI-KNVOCYPGSA-N']
3nitrocyclo111pentane1carboxylic_neut->an,3.08,"3-nitro-bicyclo[1,1,1]pentane-1-carboxylic acid",10.1021/jo040236b,['[H]OC(=O)[C@]12C([H])([H])[C@]([N+](=O)[O-])(C1([H])[H])C2([H])[H]'],['[#8](-[#6](=[#8])-[#6@@]12-[#6@](-[#6@@](-[#6@@]-1(-[H])-[H])(-[#6@@]-2(-[H])-[H])-[#7+](=[#8])-[#8-])(-[H])-[H])-[H]'],"['InChI=1S/C6H7NO4/c8-4(9)5-1-6(2-5,3-5)7(10)11/h1-3H2,(H,8,9)/t5-,6+']",['DUILIEXQFQIPRL-OLQVQODUSA-N']
3methylcyclo111pentane1carboxylic_neut->an,3.08,"3-methyl-bicyclo[1,1,1]pentane-1-carboxylic acid",10.1021/jo040236b,['[H]OC(=O)[C@]12C([H])([H])[C@](C([H])([H])[H])(C1([H])[H])C2([H])[H]'],['[#8](-[#6](=[#8])-[#6@@]12-[#6@](-[#6@@](-[#6@@]-1(-[H])-[H])(-[#6@@]-2(-[H])-[H])-[#6@@](-[H])(-[H])-[H])(-[H])-[H])-[H]'],"['InChI=1S/C7H10O2/c1-6-2-7(3-6,4-6)5(8)9/h2-4H2,1H3,(H,8,9)/t6-,7-']",['TUFJVYRDYWRNOL-LJGSYFOKSA-N']
benzoccinnoline_cation->neut,2.2,benco[c]cinnoline,doi.org/10.1038/163690a0,['[H]c1c([H])c([H])c2c(nnc3c([H])c([H])c([H])c([H])c32)c1[H]'],['[#7]1:[#7]:[#6]2:[#6](:[#6]3:[#6]:1:[#6](:[#6](:[#6](:[#6]:3-[H])-[H])-[H])-[H]):[#6](:[#6](:[#6](:[#6]:2-[H])-[H])-[H])-[H]'],['InChI=1S/C12H8N2/c1-3-7-11-9(5-1)10-6-2-4-8-12(10)14-13-11/h1-8H'],['SWJXWSAKHXBQSY-UHFFFAOYSA-N']
norharmane_cation->neut,7.2,norharmane,doi.org/10.1039/A608270J,['[H]c1nc([H])c2c(c1[H])c1c([H])c([H])c([H])c([H])c1n2[H]'],['[#7]1(:[#6]2:[#6](:[#6]3:[#6]:1:[#6](:[#7]:[#6](:[#6]:3-[H])-[H])-[H]):[#6](:[#6](:[#6](:[#6]:2-[H])-[H])-[H])-[H])-[H]'],"['InChI=1S/C11H8N2/c1-2-4-10-8(3-1)9-5-6-12-7-11(9)13-10/h1-7,13H']",['AIFRHYZBTHREPW-UHFFFAOYSA-N']
norharmane_neut->an,14.5,norharmane,doi.org/10.1016/0047-2670(83)87109-3,['[H]c1nc([H])c2c(c1[H])c1c([H])c([H])c([H])c([H])c1n2[H]'],['[#7]1(:[#6]2:[#6](:[#6]3:[#6]:1:[#6](:[#7]:[#6](:[#6]:3-[H])-[H])-[H]):[#6](:[#6](:[#6](:[#6]:2-[H])-[H])-[H])-[H])-[H]'],"['InChI=1S/C11H8N2/c1-2-4-10-8(3-1)9-5-6-12-7-11(9)13-10/h1-7,13H']",['AIFRHYZBTHREPW-UHFFFAOYSA-N']
naphtimidazole_neut->an,12.36,naphtimidazole,doi.org/10.1016/S0065-2725(08)60162-2,['[H]c1c([H])c([H])c2c([H])c3c(nc([H])n3[H])c([H])c2c1[H]'],['[#6]1(:[#6](:[#6]2:[#6](:[#6](:[#6]:1-[H])-[H]):[#6](:[#6]1:[#6](:[#6]:2-[H]):[#7]:[#6](:[#7]:1-[H])-[H])-[H])-[H])-[H]'],"['InChI=1S/C11H8N2/c1-2-4-9-6-11-10(12-7-13-11)5-8(9)3-1/h1-7H,(H,12,13)']",['USYCQABRSUEURP-UHFFFAOYSA-N']
47phenanthroline_cation->neut,4,"4,7-phenanthroline",doi.org/10.1021/ja01151a146,['[H]c1nc2c([H])c([H])c3nc([H])c([H])c([H])c3c2c([H])c1[H]'],['[#7]1:[#6]2:[#6](:[#6]3:[#6](:[#7]:[#6](:[#6](:[#6]:3-[H])-[H])-[H]):[#6](:[#6]:2-[H])-[H]):[#6](:[#6](:[#6]:1-[H])-[H])-[H]'],['InChI=1S/C12H8N2/c1-3-9-10-4-2-8-14-12(10)6-5-11(9)13-7-1/h1-8H'],['DATYUTWESAKQQM-UHFFFAOYSA-N']
47phenanthroline_2cation->cation,2.4,"4,7-phenanthroline",doi.org/10.1021/ja01151a146,['[H]c1nc2c([H])c([H])c3nc([H])c([H])c([H])c3c2c([H])c1[H]'],['[#7]1:[#6]2:[#6](:[#6]3:[#6](:[#7]:[#6](:[#6](:[#6]:3-[H])-[H])-[H]):[#6](:[#6]:2-[H])-[H]):[#6](:[#6](:[#6]:1-[H])-[H])-[H]'],['InChI=1S/C12H8N2/c1-3-9-10-4-2-8-14-12(10)6-5-11(9)13-7-1/h1-8H'],['DATYUTWESAKQQM-UHFFFAOYSA-N']
2methylnaphtimidazole_cation->neut,6.02,2methyl-naphthimidazole,doi.org/10.1016/S0065-2725(08)60162-2,['[H]c1c([H])c([H])c2c([H])c3c(nc(C([H])([H])[H])n3[H])c([H])c2c1[H]'],['[#7]1:[#6]2:[#6](:[#7](:[#6]:1-[#6@@](-[H])(-[H])-[H])-[H]):[#6](:[#6]1:[#6](:[#6]:2-[H]):[#6](:[#6](:[#6](:[#6]:1-[H])-[H])-[H])-[H])-[H]'],"['InChI=1S/C12H10N2/c1-8-13-11-6-9-4-2-3-5-10(9)7-12(11)14-8/h2-7H,1H3,(H,13,14)']",['BWKHKCMWUDYPOW-UHFFFAOYSA-N']
2methylnaphtimidazole_neut->an,12.73,2methyl-naphthimidazole,doi.org/10.1016/S0065-2725(08)60162-2,['[H]c1c([H])c([H])c2c([H])c3c(nc(C([H])([H])[H])n3[H])c([H])c2c1[H]'],['[#7]1:[#6]2:[#6](:[#7](:[#6]:1-[#6@@](-[H])(-[H])-[H])-[H]):[#6](:[#6]1:[#6](:[#6]:2-[H]):[#6](:[#6](:[#6](:[#6]:1-[H])-[H])-[H])-[H])-[H]'],"['InChI=1S/C12H10N2/c1-8-13-11-6-9-4-2-3-5-10(9)7-12(11)14-8/h2-7H,1H3,(H,13,14)']",['BWKHKCMWUDYPOW-UHFFFAOYSA-N']
38dimethyl110phenanthroline_cation->neut,5.23,"3,8-dimethyl-1,10-phenanthroline",doi.org/10.1021/j150545a017,['[H]c1nc2c(c([H])c1C([H])([H])[H])c([H])c([H])c1c([H])c(C([H])([H])[H])c([H])nc12'],['[#7]1:[#6]2:[#6]3:[#7]:[#6](:[#6](:[#6](:[#6]:3:[#6](:[#6](:[#6]:2:[#6](:[#6](:[#6]:1-[H])-[#6@@](-[H])(-[H])-[H])-[H])-[H])-[H])-[H])-[#6@@](-[H])(-[H])-[H])-[H]'],"['InChI=1S/C14H12N2/c1-9-5-11-3-4-12-6-10(2)8-16-14(12)13(11)15-7-9/h3-8H,1-2H3']",['KSACKJIWQPGKMJ-UHFFFAOYSA-N']
3568tetramethyl110phenanthroline_cation->neut,5.54,"3,5,6,8-tetramethyl-1,10-phenanthroline",doi.org/10.1021/j150545a017,['[H]c1nc2c(c([H])c1C([H])([H])[H])c(C([H])([H])[H])c(C([H])([H])[H])c1c([H])c(C([H])([H])[H])c([H])nc12'],['[#7]1:[#6]2:[#6]3:[#7]:[#6](:[#6](:[#6](:[#6]:3:[#6](:[#6](:[#6]:2:[#6](:[#6](:[#6]:1-[H])-[#6@@](-[H])(-[H])-[H])-[H])-[#6@@](-[H])(-[H])-[H])-[#6@@](-[H])(-[H])-[H])-[H])-[#6@@](-[H])(-[H])-[H])-[H]'],"['InChI=1S/C16H16N2/c1-9-5-13-11(3)12(4)14-6-10(2)8-18-16(14)15(13)17-7-9/h5-8H,1-4H3']",['RLTILZHOUNHUQL-UHFFFAOYSA-N']
56dichloro110phenanthroline_cation->neut,3.47,"5,6-dichlorol-1,10-phenanthroline",doi.org/10.1021/j150545a017,['[H]c1nc2c(c([H])c1[H])c(Cl)c(Cl)c1c([H])c([H])c([H])nc12'],['[#7]1:[#6]2:[#6]3:[#7]:[#6](:[#6](:[#6](:[#6]:3:[#6](:[#6](:[#6]:2:[#6](:[#6](:[#6]:1-[H])-[H])-[H])-[#17])-[#17])-[H])-[H])-[H]'],['InChI=1S/C12H6Cl2N2/c13-9-7-3-1-5-15-11(7)12-8(10(9)14)4-2-6-16-12/h1-6H'],['KVQPLLLCJUVTSB-UHFFFAOYSA-N']
47dichloro110phenanthroline_cation->neut,3.03,"4.7-dichloro-1,10-phenanthroline",doi.org/10.1021/j150545a017,['[H]c1nc2c(c([H])c([H])c3c(Cl)c([H])c([H])nc32)c(Cl)c1[H]'],['[#7]1:[#6]2:[#6]3:[#7]:[#6](:[#6](:[#6](:[#6]:3:[#6](:[#6](:[#6]:2:[#6](:[#6](:[#6]:1-[H])-[H])-[#17])-[H])-[H])-[#17])-[H])-[H]'],['InChI=1S/C12H6Cl2N2/c13-9-3-5-15-11-7(9)1-2-8-10(14)4-6-16-12(8)11/h1-6H'],['GIEQBYJCGYHHSU-UHFFFAOYSA-N']
29dimethyl110phenanthroline_cation->neut,6.17,"2,9-dimethyl-1,10-phenanthroline",doi.org/10.1021/j150545a017,['[H]c1c(C([H])([H])[H])nc2c(c1[H])c([H])c([H])c1c([H])c([H])c(C([H])([H])[H])nc12'],['[#7]1:[#6]2:[#6]3:[#7]:[#6](:[#6](:[#6](:[#6]:3:[#6](:[#6](:[#6]:2:[#6](:[#6](:[#6]:1-[#6@@](-[H])(-[H])-[H])-[H])-[H])-[H])-[H])-[H])-[H])-[#6@@](-[H])(-[H])-[H]'],"['InChI=1S/C14H12N2/c1-9-3-5-11-7-8-12-6-4-10(2)16-14(12)13(11)15-9/h3-8H,1-2H3']",['IYRGXJIJGHOCFS-UHFFFAOYSA-N']
3478tetramethyl110phenanthroline_cation->neut,6.31,"3,4,7,8-tetramethyl-1,10-phenanthroline",doi.org/10.1021/j150545a017,['[H]c1nc2c(c([H])c([H])c3c(C([H])([H])[H])c(C([H])([H])[H])c([H])nc32)c(C([H])([H])[H])c1C([H])([H])[H]'],['[#7]1:[#6]2:[#6]3:[#7]:[#6](:[#6](:[#6](:[#6]:3:[#6](:[#6](:[#6]:2:[#6](:[#6](:[#6]:1-[H])-[#6@@](-[H])(-[H])-[H])-[#6@@](-[H])(-[H])-[H])-[H])-[H])-[#6@@](-[H])(-[H])-[H])-[#6@@](-[H])(-[H])-[H])-[H]'],"['InChI=1S/C16H16N2/c1-9-7-17-15-13(11(9)3)5-6-14-12(4)10(2)8-18-16(14)15/h5-8H,1-4H3']",['NPAXPTHCUCUHPT-UHFFFAOYSA-N']
2479tetramethyl110phenanthroline_cation->neut,6.5,"2,4,7,9-tetramethyl-1,10-phenanthroline",doi.org/10.1021/j150545a017,['[H]c1c(C([H])([H])[H])nc2c(c([H])c([H])c3c(C([H])([H])[H])c([H])c(C([H])([H])[H])nc32)c1C([H])([H])[H]'],['[#7]1:[#6]2:[#6]3:[#7]:[#6](:[#6](:[#6](:[#6]:3:[#6](:[#6](:[#6]:2:[#6](:[#6](:[#6]:1-[#6@@](-[H])(-[H])-[H])-[H])-[#6@@](-[H])(-[H])-[H])-[H])-[H])-[#6@@](-[H])(-[H])-[H])-[H])-[#6@@](-[H])(-[H])-[H]'],"['InChI=1S/C16H16N2/c1-9-7-11(3)17-15-13(9)5-6-14-10(2)8-12(4)18-16(14)15/h5-8H,1-4H3']",['XLLDGHKSXHVKJV-UHFFFAOYSA-N']
47dimethoxy110phenanthroline_cation->neut,6.45,"4,7-dimethoxy-1,10-phenanthroline",doi.org/10.1021/j150545a017,['[H]c1nc2c(c([H])c([H])c3c(OC([H])([H])[H])c([H])c([H])nc32)c(OC([H])([H])[H])c1[H]'],['[#7]1:[#6]2:[#6]3:[#7]:[#6](:[#6](:[#6](:[#6]:3:[#6](:[#6](:[#6]:2:[#6](:[#6](:[#6]:1-[H])-[H])-[#8]-[#6@@](-[H])(-[H])-[H])-[H])-[H])-[#8]-[#6@@](-[H])(-[H])-[H])-[H])-[H]'],"['InChI=1S/C14H12N2O2/c1-17-11-5-7-15-13-9(11)3-4-10-12(18-2)6-8-16-14(10)13/h3-8H,1-2H3']",['ZPGVCQYKXIQWTP-UHFFFAOYSA-N']
56dimethoxy110phenanthroline_cation->neut,4.42,"5,6-dimethoxy-1,10-phenanthroline",doi.org/10.1021/j150545a017,['[H]c1nc2c(c([H])c1[H])c(OC([H])([H])[H])c(OC([H])([H])[H])c1c([H])c([H])c([H])nc12'],['[#7]1:[#6]2:[#6]3:[#7]:[#6](:[#6](:[#6](:[#6]:3:[#6](:[#6](:[#6]:2:[#6](:[#6](:[#6]:1-[H])-[H])-[H])-[#8]-[#6@@](-[H])(-[H])-[H])-[#8]-[#6@@](-[H])(-[H])-[H])-[H])-[H])-[H]'],"['InChI=1S/C14H12N2O2/c1-17-13-9-5-3-7-15-11(9)12-10(14(13)18-2)6-4-8-16-12/h3-8H,1-2H3']",['RXXYDTQRPWZBMT-UHFFFAOYSA-N']
1aza6helicene_cation->neut,4.55,1-aza[6]helicene,https://www.ncbi.nlm.nih.gov/pmc/articles/PMC2065686/,['[H]c1nc2c(c([H])c1[H])c([H])c([H])c1c([H])c([H])c3c([H])c([H])c4c([H])c([H])c5c([H])c([H])c([H])c([H])c5c4c3c12'],['[#7]1:[#6]2:[#6]3:[#6]4:[#6]5:[#6](:[#6](:[#6](:[#6]:4:[#6](:[#6](:[#6]:3:[#6](:[#6](:[#6]:2:[#6](:[#6](:[#6]:1-[H])-[H])-[H])-[H])-[H])-[H])-[H])-[H])-[H]):[#6](:[#6](:[#6]1:[#6]:5:[#6](:[#6](:[#6](:[#6]:1-[H])-[H])-[H])-[H])-[H])-[H]'],['InChI=1S/C25H15N/c1-2-6-21-16(4-1)7-8-17-9-10-18-11-12-19-13-14-20-5-3-15-26-25(20)24(19)23(18)22(17)21/h1-15H'],['YKQPSLTYQSNMBC-UHFFFAOYSA-N']