compn,pKa,correct name,reference,smiles,smarts,inchi,inchiKey
2phenylimidazole_neut->an,13.32,2-phenylimidazole,doi.org/10.1021/jo01066a039,['[H]c1nc(-c2c([H])c([H])c([H])c([H])c2[H])n([H])c1[H]'],['[#6]1(:[#7](:[#6](:[#6](-[H]):[#7]:1)-[H])-[H])-[#6]1:[#6](:[#6](:[#6](:[#6](:[#6]:1-[H])-[H])-[H])-[H])-[H]'],"['InChI=1S/C9H8N2/c1-2-4-8(5-3-1)9-10-6-7-11-9/h1-7H,(H,10,11)']",['ZCUJYXPAKHMBAZ-UHFFFAOYSA-N']
2tertbutylbenzoic_neut->an,3.57,2-tert-butylbenzoic acid,Lange's handbook of chemistry,['[H]OC(=O)c1c([H])c([H])c([H])c([H])c1C(C([H])([H])[H])(C([H])([H])[H])C([H])([H])[H]'],['[#8](-[#6](=[#8])-[#6]1:[#6](-[#6@](-[#6@@](-[H])(-[H])-[H])(-[#6@@](-[H])(-[H])-[H])-[#6@@](-[H])(-[H])-[H]):[#6](:[#6](:[#6](:[#6]:1-[H])-[H])-[H])-[H])-[H]'],"['InChI=1S/C11H14O2/c1-11(2,3)9-7-5-4-6-8(9)10(12)13/h4-7H,1-3H3,(H,12,13)']",['ZDFKSZDMHJHQHS-UHFFFAOYSA-N']
2tertbutylphenol_neut->an,10.62,2-tertbutylphenol,Lange's handbook of chemistry,['[H]Oc1c([H])c([H])c([H])c([H])c1C(C([H])([H])[H])(C([H])([H])[H])C([H])([H])[H]'],['[#8](-[#6]1:[#6](-[#6@](-[#6@@](-[H])(-[H])-[H])(-[#6@@](-[H])(-[H])-[H])-[#6@@](-[H])(-[H])-[H]):[#6](:[#6](:[#6](:[#6]:1-[H])-[H])-[H])-[H])-[H]'],"['InChI=1S/C10H14O/c1-10(2,3)8-6-4-5-7-9(8)11/h4-7,11H,1-3H3']",['WJQOZHYUIDYNHM-UHFFFAOYSA-N']
2tertbutylpyridine_cation->neut,5.76,2-tert-butylpyridine,Lange's handbook of chemistry,['[H]c1nc(C(C([H])([H])[H])(C([H])([H])[H])C([H])([H])[H])c([H])c([H])c1[H]'],['[#6]1(:[#6](:[#7]:[#6](:[#6](:[#6]:1-[H])-[H])-[H])-[#6@@](-[#6@@](-[H])(-[H])-[H])(-[#6@@](-[H])(-[H])-[H])-[#6@@](-[H])(-[H])-[H])-[H]'],"['InChI=1S/C9H13N/c1-9(2,3)8-6-4-5-7-10-8/h4-7H,1-3H3']",['UUIMDJFBHNDZOW-UHFFFAOYSA-N']
2tertbutylthiazole_cation->neut,3,2-tert-butylthiazole,Lange's handbook of chemistry,['[H]c1nc(C(C([H])([H])[H])(C([H])([H])[H])C([H])([H])[H])sc1[H]'],['[#16]1:[#6](:[#7]:[#6](:[#6]:1-[H])-[H])-[#6@](-[#6@@](-[H])(-[H])-[H])(-[#6@@](-[H])(-[H])-[H])-[#6@@](-[H])(-[H])-[H]'],"['InChI=1S/C7H11NS/c1-7(2,3)6-8-4-5-9-6/h4-5H,1-3H3']",['DQAIZGWCKXJRSP-UHFFFAOYSA-N']
2thiophenecarboxylic_neut->an,3.53,2-thiophenecarboxylic acid,Lange's handbook of chemistry,"['[H]O/C([O-])=C1\\[S+]=C([H])C([H])=C1[H]', '[H]O/C([O-])=C1/[S+]=C([H])C([H])=C1[H]']","['[#16]1/[#6](-[#6](=[#6](-[#6]=1-[H])-[H])-[H])=[#6](\\[#8]-[H])-[#8-]', '[#16]1/[#6](-[#6](=[#6](-[#6]=1-[H])-[H])-[H])=[#6](/[#8]-[H])-[#8-]']","['InChI=1S/C5H4O2S/c6-5(7)4-2-1-3-8-4/h1-3H,(H-,6,7)']",['NDMFXTUPFONZSS-UHFFFAOYSA-N']
2vinylpyridine_cation->neut,4.98,2-vinylpyridine,Lange's handbook of chemistry,['[H]C([H])=C([H])c1nc([H])c([H])c([H])c1[H]'],['[#7]1:[#6](:[#6](:[#6](:[#6](:[#6]:1-[H])-[H])-[H])-[H])-[#6](=[#6](-[H])-[H])-[H]'],"['InChI=1S/C7H7N/c1-2-7-5-3-4-6-8-7/h2-6H,1H2']",['KGIGUEBEKRSTEW-UHFFFAOYSA-N']
333trichlorolactic_neut->an,2.34,"3,3,3-trichloro-2-hydroxypropanoic acid",Lange's handbook of chemistry,['[H]OC(=O)[C@]([H])(O[H])C(Cl)(Cl)Cl'],['[#17]-[#6@@](-[#17])(-[#17])-[#6@@](-[#8]-[H])(-[#6](-[#8]-[H])=[#8])-[H]'],"['InChI=1S/C3H3Cl3O3/c4-3(5,6)1(7)2(8)9/h1,7H,(H,8,9)/t1-/m0/s1']",['PBXLMODGBAXKQR-SFOWXEAESA-N']
33bipyridine_2cation->cation,3,"3,3'-bipyridine",Lange's handbook of chemistry,['[H]c1nc([H])c(-c2c([H])nc([H])c([H])c2[H])c([H])c1[H]'],['[#6]1(:[#6](:[#6](:[#6](:[#6](-[H]):[#7]:1)-[H])-[H])-[#6]1:[#6](:[#6](:[#6](-[H]):[#7]:[#6]:1-[H])-[H])-[H])-[H]'],['InChI=1S/C10H8N2/c1-3-9(7-11-5-1)10-4-2-6-12-8-10/h1-8H'],['OFDVABAUFQJWEZ-UHFFFAOYSA-N']
33bipyridine_cation->neut,4.6,"3,3'-bipyridine",Lange's handbook of chemistry,['[H]c1nc([H])c(-c2c([H])nc([H])c([H])c2[H])c([H])c1[H]'],['[#6]1(:[#6](:[#6](:[#6](:[#6](-[H]):[#7]:1)-[H])-[H])-[#6]1:[#6](:[#6](:[#6](-[H]):[#7]:[#6]:1-[H])-[H])-[H])-[H]'],['InChI=1S/C10H8N2/c1-3-9(7-11-5-1)10-4-2-6-12-8-10/h1-8H'],['OFDVABAUFQJWEZ-UHFFFAOYSA-N']
34dichlorophenol_neut->an,8.63,"3,4-dichlorophenol",Lange's handbook of chemistry,['[H]Oc1c([H])c([H])c(Cl)c(Cl)c1[H]'],['[#6]1(:[#6](:[#6](:[#6](:[#6](:[#6]:1-[#17])-[H])-[H])-[#8]-[H])-[H])-[#17]'],"['InChI=1S/C6H4Cl2O/c7-5-2-1-4(9)3-6(5)8/h1-3,9H']",['WDNBURPWRNALGP-UHFFFAOYSA-N']
34dimethylaniline_cation->neut,5.17,"3,4-dimethylaniline",Lange's handbook of chemistry,['[H]c1c([H])c(C([H])([H])[H])c(C([H])([H])[H])c([H])c1N([H])[H]'],['[#6]1(:[#6](:[#6](:[#6](:[#6](:[#6]:1-[#6@@](-[H])(-[H])-[H])-[#6@@](-[H])(-[H])-[H])-[H])-[H])-[#7](-[H])-[H])-[H]'],"['InChI=1S/C8H11N/c1-6-3-4-8(9)5-7(6)2/h3-5H,9H2,1-2H3']",['DOLQYFPDPKPQSS-UHFFFAOYSA-N']
34dimethylbenzoic_neut->an,4.41,"3,4-dimethylbenzoic acid",Lange's handbook of chemistry,['[H]OC(=O)c1c([H])c([H])c(C([H])([H])[H])c(C([H])([H])[H])c1[H]'],['[#6]1(:[#6](:[#6](:[#6](:[#6](:[#6]:1-[#6@@](-[H])(-[H])-[H])-[#6@@](-[H])(-[H])-[H])-[H])-[H])-[#6](=[#8])-[#8]-[H])-[H]'],"['InChI=1S/C9H10O2/c1-6-3-4-8(9(10)11)5-7(6)2/h3-5H,1-2H3,(H,10,11)']",['OPVAJFQBSDUNQA-UHFFFAOYSA-N']
34dimethyl8hydroxyquinoline_cation->neut,5.8,"3,4-dimethyl-8-hydroxyquinoline",Lange's handbook of chemistry,['[H]Oc1c([H])c([H])c([H])c2c(C([H])([H])[H])c(C([H])([H])[H])c([H])nc12'],['[#8](-[#6]1:[#6]2:[#7]:[#6](:[#6](:[#6](:[#6]:2:[#6](:[#6](:[#6]:1-[H])-[H])-[H])-[#6@@](-[H])(-[H])-[H])-[#6@@](-[H])(-[H])-[H])-[H])-[H]'],"['InChI=1S/C11H11NO/c1-7-6-12-11-9(8(7)2)4-3-5-10(11)13/h3-6,13H,1-2H3']",['LNNMENPNLRCNSR-UHFFFAOYSA-N']
34dimethyl8hydroxyquinoline_neut->an,10.05,"3,4-dimethyl-8-hydroxyquinoline",Lange's handbook of chemistry,['[H]Oc1c([H])c([H])c([H])c2c(C([H])([H])[H])c(C([H])([H])[H])c([H])nc12'],['[#8](-[#6]1:[#6]2:[#7]:[#6](:[#6](:[#6](:[#6]:2:[#6](:[#6](:[#6]:1-[H])-[H])-[H])-[#6@@](-[H])(-[H])-[H])-[#6@@](-[H])(-[H])-[H])-[H])-[H]'],"['InChI=1S/C11H11NO/c1-7-6-12-11-9(8(7)2)4-3-5-10(11)13/h3-6,13H,1-2H3']",['LNNMENPNLRCNSR-UHFFFAOYSA-N']
34dimethylphenol_neut->an,10.32,"3,4-dimethylphenol",Lange's handbook of chemistry,['[H]Oc1c([H])c([H])c(C([H])([H])[H])c(C([H])([H])[H])c1[H]'],['[#6]1(:[#6](:[#6](:[#6](:[#6](:[#6]:1-[H])-[H])-[#8]-[H])-[H])-[#6@@](-[H])(-[H])-[H])-[#6@@](-[H])(-[H])-[H]'],"['InChI=1S/C8H10O/c1-6-3-4-8(9)5-7(6)2/h3-5,9H,1-2H3']",['YCOXTKKNXUZSKD-UHFFFAOYSA-N']
34dimethylpyridine_cation->neut,6.47,"3,4-dimethylpyridine",Lange's handbook of chemistry,['[H]c1nc([H])c(C([H])([H])[H])c(C([H])([H])[H])c1[H]'],['[#6]1(:[#6](-[H]):[#7]:[#6](:[#6](:[#6]:1-[#6@@](-[H])(-[H])-[H])-[H])-[H])-[#6@@](-[H])(-[H])-[H]'],"['InChI=1S/C7H9N/c1-6-3-4-8-5-7(6)2/h3-5H,1-2H3']",['NURQLCJSMXZBPC-UHFFFAOYSA-N']
34dimethylpyridineNoxyde_cation->neut,1.49,"3,4-dimethylpyridine 1-oxide",Lange's handbook of chemistry,['[H]c1c(C([H])([H])[H])c(C([H])([H])[H])c([H])[n+]([O-])c1[H]'],['[#6]1(:[#6](-[H]):[#7+](:[#6](:[#6](:[#6]:1-[#6@@](-[H])(-[H])-[H])-[H])-[H])-[#8-])-[#6@@](-[H])(-[H])-[H]'],"['InChI=1S/C7H9NO/c1-6-3-4-8(9)5-7(6)2/h3-5H,1-2H3']",['LYFNWGOUBVRWRG-UHFFFAOYSA-N']
34dimethylpyrrole_cation->neut,0.66,"3,4-dimethylpyrrole",doi.org/10.1021/ja00901a020,['[H]c1c(C([H])([H])[H])c(C([H])([H])[H])c([H])n1[H]'],['[#6]1(:[#6](:[#6](:[#6](:[#7]:1-[H])-[H])-[#6@@](-[H])(-[H])-[H])-[#6@@](-[H])(-[H])-[H])-[H]'],"['InChI=1S/C6H9N/c1-5-3-7-4-6(5)2/h3-4,7H,1-2H3']",['OJFOWGWQOFZNNJ-UHFFFAOYSA-N']
34dinitrobenzoic_neut->an,2.82,"3,4-dinitrobenzoate",Lange's handbook of chemistry,['[H]OC(=O)c1c([H])c([H])c([N+](=O)[O-])c([N+](=O)[O-])c1[H]'],['[#8](-[#6](=[#8])-[#6]1:[#6](:[#6](-[#7+](=[#8])-[#8-]):[#6](-[#7+](=[#8])-[#8-]):[#6](:[#6]:1-[H])-[H])-[H])-[H]'],"['InChI=1S/C7H4N2O6/c10-7(11)4-1-2-5(8(12)13)6(3-4)9(14)15/h1-3H,(H,10,11)']",['OMVRRHJJQILIJX-UHFFFAOYSA-N']
34dinitrophenol_neut->an,5.42,"3,4-dinitrophenol",Lange's handbook of chemistry,['[H]Oc1c([H])c([H])c([N+](=O)[O-])c([N+](=O)[O-])c1[H]'],['[#8](-[#6]1:[#6](:[#6](-[#7+](=[#8])-[#8-]):[#6](-[#7+](=[#8])-[#8-]):[#6](:[#6]:1-[H])-[H])-[H])-[H]'],"['InChI=1S/C6H4N2O5/c9-4-1-2-5(7(10)11)6(3-4)8(12)13/h1-3,9H']",['AKLOLDQYWQAREW-UHFFFAOYSA-N']
345trifluorophenol_neut->an,7.84,"3,4,5-trifluorophenol",Lange's handbook of chemistry,['[H]Oc1c([H])c(F)c(F)c(F)c1[H]'],['[#9]-[#6]1:[#6](-[#9]):[#6](:[#6](-[#8]-[H]):[#6](:[#6]:1-[#9])-[H])-[H]'],"['InChI=1S/C6H3F3O/c7-4-1-3(10)2-5(8)6(4)9/h1-2,10H']",['ZRTWIJKGTUGZJY-UHFFFAOYSA-N']
345trimethylphenol_neut->an,10.25,"3,4,5-trimethylphenol",Lange's handbook of chemistry,['[H]Oc1c([H])c(C([H])([H])[H])c(C([H])([H])[H])c(C([H])([H])[H])c1[H]'],['[#8](-[#6]1:[#6](:[#6](:[#6](:[#6](:[#6]:1-[H])-[#6@@](-[H])(-[H])-[H])-[#6@@](-[H])(-[H])-[H])-[#6@@](-[H])(-[H])-[H])-[H])-[H]'],"['InChI=1S/C9H12O/c1-6-4-9(10)5-7(2)8(6)3/h4-5,10H,1-3H3']",['FDQQNNZKEJIHMS-UHFFFAOYSA-N']
35dibromoaniline_cation->neut,2.35,"3,5-dibromoaniline",Lange's handbook of chemistry,['[H]c1c(Br)c([H])c(N([H])[H])c([H])c1Br'],['[#6]1(:[#6](:[#6](:[#6](:[#6](:[#6]:1-[H])-[#35])-[H])-[#7](-[H])-[H])-[H])-[#35]'],"['InChI=1S/C6H5Br2N/c7-4-1-5(8)3-6(9)2-4/h1-3H,9H2']",['RVNUUWJGSOHMRR-UHFFFAOYSA-N']
35dibromophenol_neut->an,8.06,"3,5-dibromophenol",Lange's handbook of chemistry,['[H]Oc1c([H])c(Br)c([H])c(Br)c1[H]'],['[#6]1(:[#6](:[#6](:[#6](:[#6](:[#6]:1-[H])-[#35])-[H])-[#8]-[H])-[H])-[#35]'],"['InChI=1S/C6H4Br2O/c7-4-1-5(8)3-6(9)2-4/h1-3,9H']",['PZFMWYNHJFZBPO-UHFFFAOYSA-N']
35dichlorophenol_neut->an,8.48,"3,5 dichlorophenol",profiles of drug substances excipiends and related (U),['[H]Oc1c([H])c(Cl)c([H])c(Cl)c1[H]'],['[#6]1(:[#6](:[#6](:[#6](:[#6](:[#6]:1-[H])-[#17])-[H])-[#8]-[H])-[H])-[#17]'],"['InChI=1S/C6H4Cl2O/c7-4-1-5(8)3-6(9)2-4/h1-3,9H']",['VPOMSPZBQMDLTM-UHFFFAOYSA-N']
35dihydroxybenzoic_neut->an,4.04,"3,5-dihydroxybenzoic acid",Lange's handbook of chemistry,['[H]OC(=O)c1c([H])c(O[H])c([H])c(O[H])c1[H]'],['[#6]1(:[#6](:[#6](:[#6](:[#6](:[#6]:1-[H])-[#6](=[#8])-[#8]-[H])-[H])-[#8]-[H])-[H])-[#8]-[H]'],"['InChI=1S/C7H6O4/c8-5-1-4(7(10)11)2-6(9)3-5/h1-3,8-9H,(H,10,11)']",['UYEMGAFJOZZIFP-UHFFFAOYSA-N']
35diiodoaniline_cation->neut,2.37,"3,5-diiodoaniline",Lange's handbook of chemistry,['[H]c1c(I)c([H])c(N([H])[H])c([H])c1I'],['[#6]1(:[#6](:[#6](:[#6](:[#6](:[#6]:1-[#53])-[H])-[#7](-[H])-[H])-[H])-[#53])-[H]'],"['InChI=1S/C6H5I2N/c7-4-1-5(8)3-6(9)2-4/h1-3H,9H2']",['CHLBMXJABUVAJX-UHFFFAOYSA-N']
35diiodophenol_neut->an,8.1,"3,5-diiodophenol",Lange's handbook of chemistry,['[H]Oc1c([H])c(I)c([H])c(I)c1[H]'],['[#6]1(:[#6](:[#6](:[#6](:[#6](:[#6]:1-[#53])-[H])-[#8]-[H])-[H])-[#53])-[H]'],"['InChI=1S/C6H4I2O/c7-4-1-5(8)3-6(9)2-4/h1-3,9H']",['KYRNAIDRKAWDLJ-UHFFFAOYSA-N']
35dimethoxyaniline_cation->neut,3.86,"3,5-dimethoxyaniline",Lange's handbook of chemistry,['[H]c1c(OC([H])([H])[H])c([H])c(N([H])[H])c([H])c1OC([H])([H])[H]'],['[#8](-[#6]1:[#6](:[#6](-[#8]-[#6@](-[H])(-[H])-[H]):[#6](:[#6](-[#7](-[H])-[H]):[#6]:1-[H])-[H])-[H])-[#6@@](-[H])(-[H])-[H]'],"['InChI=1S/C8H11NO2/c1-10-7-3-6(9)4-8(5-7)11-2/h3-5H,9H2,1-2H3']",['WNRGWPVJGDABME-UHFFFAOYSA-N']
35dimethoxyphenol_neut->an,9.35,"3,5-dimethoxyphenol",Lange's handbook of chemistry,['[H]Oc1c([H])c(OC([H])([H])[H])c([H])c(OC([H])([H])[H])c1[H]'],['[#8](-[#6]1:[#6](:[#6](-[#8]-[#6@](-[H])(-[H])-[H]):[#6](:[#6](-[#8]-[H]):[#6]:1-[H])-[H])-[H])-[#6@](-[H])(-[H])-[H]'],"['InChI=1S/C8H10O3/c1-10-7-3-6(9)4-8(5-7)11-2/h3-5,9H,1-2H3']",['XQDNFAMOIPNVES-UHFFFAOYSA-N']
35dimethyl4nitrophenol_neut->an,8.25,"3,5-dimethyl-4-nitrophenol",Lange's handbook of chemistry,['[H]Oc1c([H])c(C([H])([H])[H])c([N+](=O)[O-])c(C([H])([H])[H])c1[H]'],['[#6]1(:[#6](:[#6](:[#6](:[#6](:[#6]:1-[H])-[#8]-[H])-[H])-[#6@@](-[H])(-[H])-[H])-[#7+](=[#8])-[#8-])-[#6@@](-[H])(-[H])-[H]'],"['InChI=1S/C8H9NO3/c1-5-3-7(10)4-6(2)8(5)9(11)12/h3-4,10H,1-2H3']",['MMLPWOHLKRXZJA-UHFFFAOYSA-N']
35dimethylbenzoic_neut->an,4.3,"3,5-dimethylbenzoic acid",Lange's handbook of chemistry,['[H]OC(=O)c1c([H])c(C([H])([H])[H])c([H])c(C([H])([H])[H])c1[H]'],['[#6]1(:[#6](:[#6](:[#6](:[#6](:[#6]:1-[#6@@](-[H])(-[H])-[H])-[H])-[#6](=[#8])-[#8]-[H])-[H])-[#6@@](-[H])(-[H])-[H])-[H]'],"['InChI=1S/C9H10O2/c1-6-3-7(2)5-8(4-6)9(10)11/h3-5H,1-2H3,(H,10,11)']",['UMVOQQDNEYOJOK-UHFFFAOYSA-N']
35dimethylphenol_neut->an,10.15,"3,5-dimethylphenol",Lange's handbook of chemistry,['[H]Oc1c([H])c(C([H])([H])[H])c([H])c(C([H])([H])[H])c1[H]'],['[#6]1(:[#6](:[#6](:[#6](:[#6](:[#6]:1-[H])-[#6@@](-[H])(-[H])-[H])-[H])-[#8]-[H])-[H])-[#6@@](-[H])(-[H])-[H]'],"['InChI=1S/C8H10O/c1-6-3-7(2)5-8(9)4-6/h3-5,9H,1-2H3']",['TUAMRELNJMMDMT-UHFFFAOYSA-N']
35dimethylpyridine_cation->neut,6.09,"3,5-dimethylpyridine",Lange's handbook of chemistry,['[H]c1nc([H])c(C([H])([H])[H])c([H])c1C([H])([H])[H]'],['[#6]1(:[#6](-[H]):[#7]:[#6](:[#6](:[#6]:1-[H])-[#6@@](-[H])(-[H])-[H])-[H])-[#6@@](-[H])(-[H])-[H]'],"['InChI=1S/C7H9N/c1-6-3-7(2)5-8-4-6/h3-5H,1-2H3']",['HWWYDZCSSYKIAD-UHFFFAOYSA-N']
35dimethylpyridineNoxyde_cation->neut,1.18,"3,5-dimethylpyridine1-oxide",Lange's handbook of chemistry,['[H]c1c(C([H])([H])[H])c([H])[n+]([O-])c([H])c1C([H])([H])[H]'],['[#6]1(:[#6](-[H]):[#7+](:[#6](:[#6](:[#6]:1-[H])-[#6@@](-[H])(-[H])-[H])-[H])-[#8-])-[#6@@](-[H])(-[H])-[H]'],"['InChI=1S/C7H9NO/c1-6-3-7(2)5-8(9)4-6/h3-5H,1-2H3']",['SSTLCMOZTCLOLQ-UHFFFAOYSA-N']
35dinitroaniline_cation->neut,0.23,"3,5-dinitroaniline",Lange's handbook of chemistry,['[H]c1c(N([H])[H])c([H])c([N+](=O)[O-])c([H])c1[N+](=O)[O-]'],['[#6]1(:[#6](:[#6](:[#6](:[#6](:[#6]:1-[H])-[#7](-[H])-[H])-[H])-[#7+](=[#8])-[#8-])-[H])-[#7+](=[#8])-[#8-]'],"['InChI=1S/C6H5N3O4/c7-4-1-5(8(10)11)3-6(2-4)9(12)13/h1-3H,7H2']",['MPBZUKLDHPOCLS-UHFFFAOYSA-N']
35dinitrobenzoic_neut->an,2.85,"3,5-dinitrobenzoic acid",Lange's handbook of chemistry,['[H]OC(=O)c1c([H])c([N+](=O)[O-])c([H])c([N+](=O)[O-])c1[H]'],['[#6]1(:[#6](:[#6](:[#6](:[#6](:[#6]:1-[H])-[#7+](=[#8])-[#8-])-[H])-[#6](=[#8])-[#8]-[H])-[H])-[#7+](=[#8])-[#8-]'],"['InChI=1S/C7H4N2O6/c10-7(11)4-1-5(8(12)13)3-6(2-4)9(14)15/h1-3H,(H,10,11)']",['VYWYYJYRVSBHJQ-UHFFFAOYSA-N']
35dinitrophenol_neut->an,6.73,"3,5-dinitrophenol",Lange's handbook of chemistry,['[H]Oc1c([H])c([N+](=O)[O-])c([H])c([N+](=O)[O-])c1[H]'],['[#6]1(:[#6](:[#6](:[#6](:[#6](:[#6]:1-[#7+](=[#8])-[#8-])-[H])-[#7+](=[#8])-[#8-])-[H])-[#8]-[H])-[H]'],"['InChI=1S/C6H4N2O5/c9-6-2-4(7(10)11)1-5(3-6)8(12)13/h1-3,9H']",['UEMBNLWZFIWQFL-UHFFFAOYSA-N']
36dichlorophtalic_neut->an,1.46,"3,6-dichlorophthalic acid",Lange's handbook of chemistry,['[H]OC(=O)c1c(Cl)c([H])c([H])c(Cl)c1C(=O)O[H]'],['[#17]-[#6]1:[#6](:[#6](:[#6](-[#17]):[#6](:[#6]:1-[H])-[H])-[#6](-[#8]-[H])=[#8])-[#6](-[#8]-[H])=[#8]'],"['InChI=1S/C8H4Cl2O4/c9-3-1-2-4(10)6(8(13)14)5(3)7(11)12/h1-2H,(H,11,12)(H,13,14)']",['FLKHCKPUJWBHCW-UHFFFAOYSA-N']
36dimethylpyridazine_cation->neut,3.99,"3,6-dimethylpyridazine",10.1002/jcc.23068,['[H]c1c(C([H])([H])[H])nnc(C([H])([H])[H])c1[H]'],['[#6]1(:[#6](:[#7]:[#7]:[#6](:[#6]:1-[H])-[#6@@](-[H])(-[H])-[H])-[#6@@](-[H])(-[H])-[H])-[H]'],"['InChI=1S/C6H8N2/c1-5-3-4-6(2)8-7-5/h3-4H,1-2H3']",['BGVTUIRPHLSMJU-UHFFFAOYSA-N']
3acetamidobenzoic_neut->an,4.07,3-acetamidobenzoic acid,Lange's handbook of chemistry,['[H]OC(=O)c1c([H])c([H])c([H])c(N([H])C(=O)C([H])([H])[H])c1[H]'],['[#8](-[#6](=[#8])-[#6]1:[#6](:[#6](-[#7](-[#6](=[#8])-[#6@](-[H])(-[H])-[H])-[H]):[#6](:[#6](:[#6]:1-[H])-[H])-[H])-[H])-[H]'],"['InChI=1S/C9H9NO3/c1-6(11)10-8-4-2-3-7(5-8)9(12)13/h2-5H,1H3,(H,10,11)(H,12,13)']",['RGDPZMQZWZMONQ-UHFFFAOYSA-N']
3acetoxybenzoic_neut->an,4,3-acetoxybenzoic acid,Lange's handbook of chemistry,['[H]OC(=O)c1c([H])c([H])c([H])c(OC(=O)C([H])([H])[H])c1[H]'],['[#8](-[#6]1:[#6](:[#6](:[#6](:[#6](:[#6]:1-[H])-[H])-[H])-[#6](-[#8]-[H])=[#8])-[H])-[#6](=[#8])-[#6@](-[H])(-[H])-[H]'],"['InChI=1S/C9H8O4/c1-6(10)13-8-4-2-3-7(5-8)9(11)12/h2-5H,1H3,(H,11,12)']",['NGMYCWFGNSXLMP-UHFFFAOYSA-N']
3acetylbenzoic_neut->an,3.83,3-acetylbenzoic acid,Lange's handbook of chemistry,['[H]OC(=O)c1c([H])c([H])c([H])c(C(=O)C([H])([H])[H])c1[H]'],['[#8]=[#6](-[#6]1:[#6](:[#6](:[#6](:[#6](:[#6]:1-[H])-[H])-[H])-[#6](-[#8]-[H])=[#8])-[H])-[#6@](-[H])(-[H])-[H]'],"['InChI=1S/C9H8O3/c1-6(10)7-3-2-4-8(5-7)9(11)12/h2-5H,1H3,(H,11,12)']",['CHZPJUSFUDUEMZ-UHFFFAOYSA-N']
3acetylpyridine_cation->neut,3.26,3-acetylpyridine,Lange's handbook of chemistry,['[H]c1nc([H])c(C(=O)C([H])([H])[H])c([H])c1[H]'],['[#6]1(:[#6](:[#6](-[H]):[#7]:[#6](:[#6]:1-[H])-[H])-[#6](=[#8])-[#6@@](-[H])(-[H])-[H])-[H]'],"['InChI=1S/C7H7NO/c1-6(9)7-3-2-4-8-5-7/h2-5H,1H3']",['WEGYGNROSJDEIW-UHFFFAOYSA-N']
3amino1naphtoic_cation->neut,2.61,3-amino-1-naphthoic acid,Lange's handbook of chemistry,"['[H]OC(=O)c1c([H])c(N([H])[H])c([H])c2c([H])c([H])c([H])c([H])c12', '[H]c1c([H])c([H])c2c(C(=O)[O-])c([H])c([N+]([H])([H])[H])c([H])c2c1[H]']","['[#6]12:[#6](:[#6](:[#6](:[#6](:[#6]:1-[#6](=[#8])-[#8]-[H])-[H])-[#7](-[H])-[H])-[H]):[#6](:[#6](:[#6](:[#6]:2-[H])-[H])-[H])-[H]', '[#6]12:[#6](:[#6](:[#6](:[#6](:[#6]:1-[#6](=[#8])-[#8-])-[H])-[#7@@+](-[H])(-[H])-[H])-[H]):[#6](:[#6](:[#6](:[#6]:2-[H])-[H])-[H])-[H]']","['InChI=1S/C11H9NO2/c12-8-5-7-3-1-2-4-9(7)10(6-8)11(13)14/h1-6H,12H2,(H,13,14)']",['YIPRQTYMJYGRER-UHFFFAOYSA-N']
3amino1naphtoic_neut->an,4.39,3-amino-1-naphthoic acid,Lange's handbook of chemistry,"['[H]OC(=O)c1c([H])c(N([H])[H])c([H])c2c([H])c([H])c([H])c([H])c12', '[H]c1c([H])c([H])c2c(C(=O)[O-])c([H])c([N+]([H])([H])[H])c([H])c2c1[H]']","['[#6]12:[#6](:[#6](:[#6](:[#6](:[#6]:1-[#6](=[#8])-[#8]-[H])-[H])-[#7](-[H])-[H])-[H]):[#6](:[#6](:[#6](:[#6]:2-[H])-[H])-[H])-[H]', '[#6]12:[#6](:[#6](:[#6](:[#6](:[#6]:1-[#6](=[#8])-[#8-])-[H])-[#7@@+](-[H])(-[H])-[H])-[H]):[#6](:[#6](:[#6](:[#6]:2-[H])-[H])-[H])-[H]']","['InChI=1S/C11H9NO2/c12-8-5-7-3-1-2-4-9(7)10(6-8)11(13)14/h1-6H,12H2,(H,13,14)']",['YIPRQTYMJYGRER-UHFFFAOYSA-N']
3aminobenzoic_cation->neut,3.07,3-aminobenzoic acid,Lange's handbook of chemistry,"['[H]OC(=O)c1c([H])c([H])c([H])c(N([H])[H])c1[H]', '[H]c1c([H])c(C(=O)[O-])c([H])c([N+]([H])([H])[H])c1[H]']","['[#8](-[#6](=[#8])-[#6]1:[#6](:[#6](-[#7](-[H])-[H]):[#6](:[#6](:[#6]:1-[H])-[H])-[H])-[H])-[H]', '[#8]=[#6](-[#8-])-[#6]1:[#6](:[#6](-[#7@@+](-[H])(-[H])-[H]):[#6](:[#6](:[#6]:1-[H])-[H])-[H])-[H]']","['InChI=1S/C7H7NO2/c8-6-3-1-2-5(4-6)7(9)10/h1-4H,8H2,(H,9,10)']",['XFDUHJPVQKIXHO-UHFFFAOYSA-N']
3aminobenzoic_neut->an,4.79,3-aminobenzoic acid,Lange's handbook of chemistry,"['[H]OC(=O)c1c([H])c([H])c([H])c(N([H])[H])c1[H]', '[H]c1c([H])c(C(=O)[O-])c([H])c([N+]([H])([H])[H])c1[H]']","['[#8](-[#6](=[#8])-[#6]1:[#6](:[#6](-[#7](-[H])-[H]):[#6](:[#6](:[#6]:1-[H])-[H])-[H])-[H])-[H]', '[#8]=[#6](-[#8-])-[#6]1:[#6](:[#6](-[#7@@+](-[H])(-[H])-[H]):[#6](:[#6](:[#6]:1-[H])-[H])-[H])-[H]']","['InChI=1S/C7H7NO2/c8-6-3-1-2-5(4-6)7(9)10/h1-4H,8H2,(H,9,10)']",['XFDUHJPVQKIXHO-UHFFFAOYSA-N']
3aminobenzoicmethylester_cation->neut,3.58,3-aminobenzoic acid methyl ester,Lange's handbook of chemistry,['[H]c1c([H])c(C(=O)OC([H])([H])[H])c([H])c(N([H])[H])c1[H]'],['[#8](-[#6](=[#8])-[#6]1:[#6](:[#6](-[#7](-[H])-[H]):[#6](:[#6](:[#6]:1-[H])-[H])-[H])-[H])-[#6@@](-[H])(-[H])-[H]'],"['InChI=1S/C8H9NO2/c1-11-8(10)6-3-2-4-7(9)5-6/h2-5H,9H2,1H3']",['VZDNXXPBYLGWOS-UHFFFAOYSA-N']
3aminobenzonitrile_cation->neut,2.75,3-aminobenzonitrile,Lange's handbook of chemistry,['[H]c1c([H])c(C#N)c([H])c(N([H])[H])c1[H]'],['[#7](-[#6]1:[#6](:[#6](:[#6](:[#6](:[#6]:1-[H])-[H])-[H])-[#6]#[#7])-[H])(-[H])-[H]'],"['InChI=1S/C7H6N2/c8-5-6-2-1-3-7(9)4-6/h1-4H,9H2']",['NJXPYZHXZZCTNI-UHFFFAOYSA-N']
3aminobenzosulfonic_neut->an,3.74,3-aminobenzenesulfonic acid,Lange's handbook of chemistry,['[H]c1c([H])c([N+]([H])([H])[H])c([H])c(S(=O)(=O)[O-])c1[H]'],['[#8]=[#16@](=[#8])(-[#8-])-[#6]1:[#6](:[#6](-[#7@@+](-[H])(-[H])-[H]):[#6](:[#6](:[#6]:1-[H])-[H])-[H])-[H]'],"['InChI=1S/C6H7NO3S/c7-5-2-1-3-6(4-5)11(8,9)10/h1-4H,7H2,(H,8,9,10)']",['ZAJAQTYSTDTMCU-UHFFFAOYSA-N']
3aminobiphenyl_cation->neut,4.18,3-aminobiphenyl,Lange's handbook of chemistry,['[H]c1c([H])c([H])c(-c2c([H])c([H])c([H])c(N([H])[H])c2[H])c([H])c1[H]'],['[#7](-[#6]1:[#6](:[#6](-[#6]2:[#6](:[#6](:[#6](:[#6](:[#6]:2-[H])-[H])-[H])-[H])-[H]):[#6](:[#6](:[#6]:1-[H])-[H])-[H])-[H])(-[H])-[H]'],"['InChI=1S/C12H11N/c13-12-8-4-7-11(9-12)10-5-2-1-3-6-10/h1-9H,13H2']",['MUNOBADFTHUUFG-UHFFFAOYSA-N']