compn,pKa,correct name,reference,smiles,smarts,inchi,inchiKey
18dihydroxyadenine_cation->neut,2.45,"2,8-dihydroxyadenine",profiles of drug substances excipiends and related (U),"['[H]Oc1nc(N([H])[H])c2nc(O[H])n([H])c2n1', '[H]Oc1nc2nc(=O)n([H])c-2c(N([H])[H])n1[H]', '[H]Oc1nc(N([H])[H])c2n([H])c(=O)nc-2n1[H]', '[H]Oc1nc(=[N+]([H])[H])c2nc([O-])n([H])c2n1[H]', '[H]N([H])c1c2c(nc(=O)n1[H])n([H])c(=O)n2[H]', '[H]/N=c1/c2c(n([H])c(=O)n1[H])n([H])c(=O)n2[H]', '[H]Oc1nc(N([H])[H])c2c(n1)nc(O[H])n2[H]', '[H]Oc1nc2nc(O[H])n([H])c(N([H])[H])c-2n1', '[H]N([H])c1c2n([H])c(=O)nc-2n([H])c(=O)n1[H]', '[H]N([H])c1nc(=O)n([H])c2c1n([H])c(=O)n2[H]', '[H]n1c(=[N+]([H])[H])c2nc([O-])n([H])c2n([H])c1=O', '[H]n1c([O-])nc([N+]([H])([H])[H])c2n([H])c(=O)nc1-2', '[H]Oc1nc2c(N([H])[H])n([H])c(=O)n([H])c-2n1', '[H]Oc1nc2c(nc([O-])n2[H])c(=[N+]([H])[H])n1[H]', '[H]Oc1nc(N([H])[H])c2c(n1)n([H])c(=O)n2[H]', '[H]Oc1nc2c(N([H])[H])n([H])c(=O)nc2n1[H]', '[H]Oc1nc2nc(=O)n([H])c(N([H])[H])c2n1[H]', '[H]Oc1nc2c(N([H])[H])nc(=O)n([H])c2n1[H]', '[H]Oc1nc2c(c(N([H])[H])nc(=O)n2[H])n1[H]', '[H]Oc1n([H])c2c(N([H])[H])nc([O-])nc2[n+]1[H]', '[H]Oc1nc([N+]([H])([H])[H])c2nc([O-])n([H])c2n1']","['[#8](-[#6]1:[#7]:[#6]2:[#6](:[#7]:1-[H]):[#7]:[#6](-[#8]-[H]):[#7]:[#6]:2-[#7](-[H])-[H])-[H]', '[#8]=[#6]1:[#7](:[#6]2-[#6](:[#7]:1):[#7]:[#6](-[#8]-[H]):[#7](:[#6]:2-[#7](-[H])-[H])-[H])-[H]', '[#8]=[#6]1:[#7](:[#6]2-[#6](:[#7]:1):[#7](:[#6](-[#8]-[H]):[#7]:[#6]:2-[#7](-[H])-[H])-[H])-[H]', '[#8]-[#6]1:[#7]:[#6]2:[#6](:[#7]:1-[H]):[#7](:[#6](-[#8]-[H]):[#7]:[#6]:2=[#7+](-[H])-[H])-[H]', '[#8]=[#6]1:[#7](:[#6]2:[#6](:[#7]:1-[H]):[#7]:[#6](=[#8]):[#7](:[#6]:2-[#7](-[H])-[H])-[H])-[H]', '[#8]=[#6]1:[#7](:[#6]2:[#6](:[#7]:1-[H]):[#7](:[#6](=[#8]):[#7](:[#6]:2=[#7]\\[H])-[H])-[H])-[H]', '[#8](-[#6]1:[#7](:[#6]2:[#6](:[#7]:1):[#7]:[#6](-[#8]-[H]):[#7]:[#6]:2-[#7](-[H])-[H])-[H])-[H]', '[#8](-[#6]1:[#7]:[#6]2-[#6](:[#7]:1):[#7]:[#6](-[#8]-[H]):[#7](:[#6]:2-[#7](-[H])-[H])-[H])-[H]', '[#8]=[#6]1:[#7](:[#6]2-[#6](:[#7]:1):[#7](:[#6](=[#8]):[#7](:[#6]:2-[#7](-[H])-[H])-[H])-[H])-[H]', '[#8]=[#6]1:[#7](:[#6]2:[#6](:[#7]:1-[H]):[#7](:[#6](=[#8]):[#7]:[#6]:2-[#7](-[H])-[H])-[H])-[H]', '[#8]-[#6]1:[#7]:[#6]2:[#6](:[#7]:1-[H]):[#7](:[#6](=[#8]):[#7](:[#6]:2=[#7+](-[H])-[H])-[H])-[H]', '[#8]=[#6]1:[#7](:[#6]2-[#6](:[#7]:1):[#7](:[#6](-[#8-]):[#7]:[#6]:2-[#7@@+](-[H])(-[H])-[H])-[H])-[H]', '[#8](-[#6]1:[#7]:[#6]2-[#6](:[#7]:1):[#7](:[#6](=[#8]):[#7](:[#6]:2-[#7](-[H])-[H])-[H])-[H])-[H]', '[#8]-[#6]1:[#7]:[#6]2:[#6](:[#7]:1-[H]):[#7]:[#6](-[#8]-[H]):[#7](:[#6]:2=[#7+](-[H])-[H])-[H]', '[#8]=[#6]1:[#7](:[#6]2:[#6](:[#7]:1-[H]):[#7]:[#6](-[#8]-[H]):[#7]:[#6]:2-[#7](-[H])-[H])-[H]', '[#8](-[#6]1:[#7]:[#6]2:[#6](:[#7]:1-[H]):[#7]:[#6](=[#8]):[#7](:[#6]:2-[#7](-[H])-[H])-[H])-[H]', '[#8](-[#6]1:[#7](:[#6]2:[#6](:[#7]:1):[#7]:[#6](=[#8]):[#7](:[#6]:2-[#7](-[H])-[H])-[H])-[H])-[H]', '[#8](-[#6]1:[#7]:[#6]2:[#6](:[#7]:1-[H]):[#7](:[#6](=[#8]):[#7]:[#6]:2-[#7](-[H])-[H])-[H])-[H]', '[#8](-[#6]1:[#7](:[#6]2:[#6](:[#7]:1):[#7](:[#6](=[#8]):[#7]:[#6]:2-[#7](-[H])-[H])-[H])-[H])-[H]', '[#8](-[#6]1:[#7](:[#6]2:[#6](:[#7+]:1-[H]):[#7]:[#6](-[#8-]):[#7]:[#6]:2-[#7](-[H])-[H])-[H])-[H]', '[#8]-[#6]1:[#7]:[#6]2:[#6](:[#7]:1-[H]):[#7]:[#6](-[#8]-[H]):[#7]:[#6]:2-[#7@@+](-[H])(-[H])-[H]']","['InChI=1S/C5H5N5O2/c6-2-1-3(9-4(11)7-1)10-5(12)8-2/h(H5,6,7,8,9,10,11,12)']",['XFBOJHLYDJZYSP-UHFFFAOYSA-N']
18dihydroxyadenine_neut->an,8.12,"2,8-dihydroxyadenine",profiles of drug substances excipiends and related (U),"['[H]Oc1nc(N([H])[H])c2nc(O[H])n([H])c2n1', '[H]Oc1nc2nc(=O)n([H])c-2c(N([H])[H])n1[H]', '[H]Oc1nc(N([H])[H])c2n([H])c(=O)nc-2n1[H]', '[H]Oc1nc(=[N+]([H])[H])c2nc([O-])n([H])c2n1[H]', '[H]N([H])c1c2c(nc(=O)n1[H])n([H])c(=O)n2[H]', '[H]/N=c1/c2c(n([H])c(=O)n1[H])n([H])c(=O)n2[H]', '[H]Oc1nc(N([H])[H])c2c(n1)nc(O[H])n2[H]', '[H]Oc1nc2nc(O[H])n([H])c(N([H])[H])c-2n1', '[H]N([H])c1c2n([H])c(=O)nc-2n([H])c(=O)n1[H]', '[H]N([H])c1nc(=O)n([H])c2c1n([H])c(=O)n2[H]', '[H]n1c(=[N+]([H])[H])c2nc([O-])n([H])c2n([H])c1=O', '[H]n1c([O-])nc([N+]([H])([H])[H])c2n([H])c(=O)nc1-2', '[H]Oc1nc2c(N([H])[H])n([H])c(=O)n([H])c-2n1', '[H]Oc1nc2c(nc([O-])n2[H])c(=[N+]([H])[H])n1[H]', '[H]Oc1nc(N([H])[H])c2c(n1)n([H])c(=O)n2[H]', '[H]Oc1nc2c(N([H])[H])n([H])c(=O)nc2n1[H]', '[H]Oc1nc2nc(=O)n([H])c(N([H])[H])c2n1[H]', '[H]Oc1nc2c(N([H])[H])nc(=O)n([H])c2n1[H]', '[H]Oc1nc2c(c(N([H])[H])nc(=O)n2[H])n1[H]', '[H]Oc1n([H])c2c(N([H])[H])nc([O-])nc2[n+]1[H]', '[H]Oc1nc([N+]([H])([H])[H])c2nc([O-])n([H])c2n1']","['[#8](-[#6]1:[#7]:[#6]2:[#6](:[#7]:1-[H]):[#7]:[#6](-[#8]-[H]):[#7]:[#6]:2-[#7](-[H])-[H])-[H]', '[#8]=[#6]1:[#7](:[#6]2-[#6](:[#7]:1):[#7]:[#6](-[#8]-[H]):[#7](:[#6]:2-[#7](-[H])-[H])-[H])-[H]', '[#8]=[#6]1:[#7](:[#6]2-[#6](:[#7]:1):[#7](:[#6](-[#8]-[H]):[#7]:[#6]:2-[#7](-[H])-[H])-[H])-[H]', '[#8]-[#6]1:[#7]:[#6]2:[#6](:[#7]:1-[H]):[#7](:[#6](-[#8]-[H]):[#7]:[#6]:2=[#7+](-[H])-[H])-[H]', '[#8]=[#6]1:[#7](:[#6]2:[#6](:[#7]:1-[H]):[#7]:[#6](=[#8]):[#7](:[#6]:2-[#7](-[H])-[H])-[H])-[H]', '[#8]=[#6]1:[#7](:[#6]2:[#6](:[#7]:1-[H]):[#7](:[#6](=[#8]):[#7](:[#6]:2=[#7]\\[H])-[H])-[H])-[H]', '[#8](-[#6]1:[#7](:[#6]2:[#6](:[#7]:1):[#7]:[#6](-[#8]-[H]):[#7]:[#6]:2-[#7](-[H])-[H])-[H])-[H]', '[#8](-[#6]1:[#7]:[#6]2-[#6](:[#7]:1):[#7]:[#6](-[#8]-[H]):[#7](:[#6]:2-[#7](-[H])-[H])-[H])-[H]', '[#8]=[#6]1:[#7](:[#6]2-[#6](:[#7]:1):[#7](:[#6](=[#8]):[#7](:[#6]:2-[#7](-[H])-[H])-[H])-[H])-[H]', '[#8]=[#6]1:[#7](:[#6]2:[#6](:[#7]:1-[H]):[#7](:[#6](=[#8]):[#7]:[#6]:2-[#7](-[H])-[H])-[H])-[H]', '[#8]-[#6]1:[#7]:[#6]2:[#6](:[#7]:1-[H]):[#7](:[#6](=[#8]):[#7](:[#6]:2=[#7+](-[H])-[H])-[H])-[H]', '[#8]=[#6]1:[#7](:[#6]2-[#6](:[#7]:1):[#7](:[#6](-[#8-]):[#7]:[#6]:2-[#7@@+](-[H])(-[H])-[H])-[H])-[H]', '[#8](-[#6]1:[#7]:[#6]2-[#6](:[#7]:1):[#7](:[#6](=[#8]):[#7](:[#6]:2-[#7](-[H])-[H])-[H])-[H])-[H]', '[#8]-[#6]1:[#7]:[#6]2:[#6](:[#7]:1-[H]):[#7]:[#6](-[#8]-[H]):[#7](:[#6]:2=[#7+](-[H])-[H])-[H]', '[#8]=[#6]1:[#7](:[#6]2:[#6](:[#7]:1-[H]):[#7]:[#6](-[#8]-[H]):[#7]:[#6]:2-[#7](-[H])-[H])-[H]', '[#8](-[#6]1:[#7]:[#6]2:[#6](:[#7]:1-[H]):[#7]:[#6](=[#8]):[#7](:[#6]:2-[#7](-[H])-[H])-[H])-[H]', '[#8](-[#6]1:[#7](:[#6]2:[#6](:[#7]:1):[#7]:[#6](=[#8]):[#7](:[#6]:2-[#7](-[H])-[H])-[H])-[H])-[H]', '[#8](-[#6]1:[#7]:[#6]2:[#6](:[#7]:1-[H]):[#7](:[#6](=[#8]):[#7]:[#6]:2-[#7](-[H])-[H])-[H])-[H]', '[#8](-[#6]1:[#7](:[#6]2:[#6](:[#7]:1):[#7](:[#6](=[#8]):[#7]:[#6]:2-[#7](-[H])-[H])-[H])-[H])-[H]', '[#8](-[#6]1:[#7](:[#6]2:[#6](:[#7+]:1-[H]):[#7]:[#6](-[#8-]):[#7]:[#6]:2-[#7](-[H])-[H])-[H])-[H]', '[#8]-[#6]1:[#7]:[#6]2:[#6](:[#7]:1-[H]):[#7]:[#6](-[#8]-[H]):[#7]:[#6]:2-[#7@@+](-[H])(-[H])-[H]']","['InChI=1S/C5H5N5O2/c6-2-1-3(9-4(11)7-1)10-5(12)8-2/h(H5,6,7,8,9,10,11,12)']",['XFBOJHLYDJZYSP-UHFFFAOYSA-N']
18dihydroxyadenine_an->2an,11.4,"2,8-dihydroxyadenine",profiles of drug substances excipiends and related (U),"['[H]Oc1nc(N([H])[H])c2nc(O[H])n([H])c2n1', '[H]Oc1nc2nc(=O)n([H])c-2c(N([H])[H])n1[H]', '[H]Oc1nc(N([H])[H])c2n([H])c(=O)nc-2n1[H]', '[H]Oc1nc(=[N+]([H])[H])c2nc([O-])n([H])c2n1[H]', '[H]N([H])c1c2c(nc(=O)n1[H])n([H])c(=O)n2[H]', '[H]/N=c1/c2c(n([H])c(=O)n1[H])n([H])c(=O)n2[H]', '[H]Oc1nc(N([H])[H])c2c(n1)nc(O[H])n2[H]', '[H]Oc1nc2nc(O[H])n([H])c(N([H])[H])c-2n1', '[H]N([H])c1c2n([H])c(=O)nc-2n([H])c(=O)n1[H]', '[H]N([H])c1nc(=O)n([H])c2c1n([H])c(=O)n2[H]', '[H]n1c(=[N+]([H])[H])c2nc([O-])n([H])c2n([H])c1=O', '[H]n1c([O-])nc([N+]([H])([H])[H])c2n([H])c(=O)nc1-2', '[H]Oc1nc2c(N([H])[H])n([H])c(=O)n([H])c-2n1', '[H]Oc1nc2c(nc([O-])n2[H])c(=[N+]([H])[H])n1[H]', '[H]Oc1nc(N([H])[H])c2c(n1)n([H])c(=O)n2[H]', '[H]Oc1nc2c(N([H])[H])n([H])c(=O)nc2n1[H]', '[H]Oc1nc2nc(=O)n([H])c(N([H])[H])c2n1[H]', '[H]Oc1nc2c(N([H])[H])nc(=O)n([H])c2n1[H]', '[H]Oc1nc2c(c(N([H])[H])nc(=O)n2[H])n1[H]', '[H]Oc1n([H])c2c(N([H])[H])nc([O-])nc2[n+]1[H]', '[H]Oc1nc([N+]([H])([H])[H])c2nc([O-])n([H])c2n1']","['[#8](-[#6]1:[#7]:[#6]2:[#6](:[#7]:1-[H]):[#7]:[#6](-[#8]-[H]):[#7]:[#6]:2-[#7](-[H])-[H])-[H]', '[#8]=[#6]1:[#7](:[#6]2-[#6](:[#7]:1):[#7]:[#6](-[#8]-[H]):[#7](:[#6]:2-[#7](-[H])-[H])-[H])-[H]', '[#8]=[#6]1:[#7](:[#6]2-[#6](:[#7]:1):[#7](:[#6](-[#8]-[H]):[#7]:[#6]:2-[#7](-[H])-[H])-[H])-[H]', '[#8]-[#6]1:[#7]:[#6]2:[#6](:[#7]:1-[H]):[#7](:[#6](-[#8]-[H]):[#7]:[#6]:2=[#7+](-[H])-[H])-[H]', '[#8]=[#6]1:[#7](:[#6]2:[#6](:[#7]:1-[H]):[#7]:[#6](=[#8]):[#7](:[#6]:2-[#7](-[H])-[H])-[H])-[H]', '[#8]=[#6]1:[#7](:[#6]2:[#6](:[#7]:1-[H]):[#7](:[#6](=[#8]):[#7](:[#6]:2=[#7]\\[H])-[H])-[H])-[H]', '[#8](-[#6]1:[#7](:[#6]2:[#6](:[#7]:1):[#7]:[#6](-[#8]-[H]):[#7]:[#6]:2-[#7](-[H])-[H])-[H])-[H]', '[#8](-[#6]1:[#7]:[#6]2-[#6](:[#7]:1):[#7]:[#6](-[#8]-[H]):[#7](:[#6]:2-[#7](-[H])-[H])-[H])-[H]', '[#8]=[#6]1:[#7](:[#6]2-[#6](:[#7]:1):[#7](:[#6](=[#8]):[#7](:[#6]:2-[#7](-[H])-[H])-[H])-[H])-[H]', '[#8]=[#6]1:[#7](:[#6]2:[#6](:[#7]:1-[H]):[#7](:[#6](=[#8]):[#7]:[#6]:2-[#7](-[H])-[H])-[H])-[H]', '[#8]-[#6]1:[#7]:[#6]2:[#6](:[#7]:1-[H]):[#7](:[#6](=[#8]):[#7](:[#6]:2=[#7+](-[H])-[H])-[H])-[H]', '[#8]=[#6]1:[#7](:[#6]2-[#6](:[#7]:1):[#7](:[#6](-[#8-]):[#7]:[#6]:2-[#7@@+](-[H])(-[H])-[H])-[H])-[H]', '[#8](-[#6]1:[#7]:[#6]2-[#6](:[#7]:1):[#7](:[#6](=[#8]):[#7](:[#6]:2-[#7](-[H])-[H])-[H])-[H])-[H]', '[#8]-[#6]1:[#7]:[#6]2:[#6](:[#7]:1-[H]):[#7]:[#6](-[#8]-[H]):[#7](:[#6]:2=[#7+](-[H])-[H])-[H]', '[#8]=[#6]1:[#7](:[#6]2:[#6](:[#7]:1-[H]):[#7]:[#6](-[#8]-[H]):[#7]:[#6]:2-[#7](-[H])-[H])-[H]', '[#8](-[#6]1:[#7]:[#6]2:[#6](:[#7]:1-[H]):[#7]:[#6](=[#8]):[#7](:[#6]:2-[#7](-[H])-[H])-[H])-[H]', '[#8](-[#6]1:[#7](:[#6]2:[#6](:[#7]:1):[#7]:[#6](=[#8]):[#7](:[#6]:2-[#7](-[H])-[H])-[H])-[H])-[H]', '[#8](-[#6]1:[#7]:[#6]2:[#6](:[#7]:1-[H]):[#7](:[#6](=[#8]):[#7]:[#6]:2-[#7](-[H])-[H])-[H])-[H]', '[#8](-[#6]1:[#7](:[#6]2:[#6](:[#7]:1):[#7](:[#6](=[#8]):[#7]:[#6]:2-[#7](-[H])-[H])-[H])-[H])-[H]', '[#8](-[#6]1:[#7](:[#6]2:[#6](:[#7+]:1-[H]):[#7]:[#6](-[#8-]):[#7]:[#6]:2-[#7](-[H])-[H])-[H])-[H]', '[#8]-[#6]1:[#7]:[#6]2:[#6](:[#7]:1-[H]):[#7]:[#6](-[#8]-[H]):[#7]:[#6]:2-[#7@@+](-[H])(-[H])-[H]']","['InChI=1S/C5H5N5O2/c6-2-1-3(9-4(11)7-1)10-5(12)8-2/h(H5,6,7,8,9,10,11,12)']",['XFBOJHLYDJZYSP-UHFFFAOYSA-N']
19dimethyladenine_2cation->cation,-0.7,"1,9-dimethyladenine",doi.org/10.1039/B202023H,"['[H]/N=c1/c2nc([H])n(C([H])([H])[H])c2nc([H])n1C([H])([H])[H]', '[H]/N=c1\\c2nc([H])n(C([H])([H])[H])c2nc([H])n1C([H])([H])[H]']","['[#7]1:[#6]2:[#6](:[#7](:[#6]:1-[H])-[#6@@](-[H])(-[H])-[H]):[#7]:[#6](:[#7](:[#6]:2=[#7]\\[H])-[#6@@](-[H])(-[H])-[H])-[H]', '[#7]1:[#6]2:[#6](:[#7](:[#6]:1-[H])-[#6@@](-[H])(-[H])-[H]):[#7]:[#6](:[#7](:[#6]:2=[#7]/[H])-[#6@@](-[H])(-[H])-[H])-[H]']","['InChI=1S/C7H9N5/c1-11-4-10-7-5(6(11)8)9-3-12(7)2/h3-4,8H,1-2H3/b8-6-', 'InChI=1S/C7H9N5/c1-11-4-10-7-5(6(11)8)9-3-12(7)2/h3-4,8H,1-2H3/b8-6+']","['FYKDNUMFZTYMLQ-VURMDHGXSA-N', 'FYKDNUMFZTYMLQ-SOFGYWHQSA-N']"
19dimethyladenine_cation->neut,9.1,"1,9-dimethyladenine",doi.org/10.1039/B202023H,"['[H]/N=c1/c2nc([H])n(C([H])([H])[H])c2nc([H])n1C([H])([H])[H]', '[H]/N=c1\\c2nc([H])n(C([H])([H])[H])c2nc([H])n1C([H])([H])[H]']","['[#7]1:[#6]2:[#6](:[#7](:[#6]:1-[H])-[#6@@](-[H])(-[H])-[H]):[#7]:[#6](:[#7](:[#6]:2=[#7]\\[H])-[#6@@](-[H])(-[H])-[H])-[H]', '[#7]1:[#6]2:[#6](:[#7](:[#6]:1-[H])-[#6@@](-[H])(-[H])-[H]):[#7]:[#6](:[#7](:[#6]:2=[#7]/[H])-[#6@@](-[H])(-[H])-[H])-[H]']","['InChI=1S/C7H9N5/c1-11-4-10-7-5(6(11)8)9-3-12(7)2/h3-4,8H,1-2H3/b8-6-', 'InChI=1S/C7H9N5/c1-11-4-10-7-5(6(11)8)9-3-12(7)2/h3-4,8H,1-2H3/b8-6+']","['FYKDNUMFZTYMLQ-VURMDHGXSA-N', 'FYKDNUMFZTYMLQ-SOFGYWHQSA-N']"
79dimethyladenine_2cation->cation,0.5,"7,9-dimethyladenine",doi.org/10.1039/B202023H,['[H]/N=c1\\nc([H])nc2[c-]1[n+](C([H])([H])[H])c([H])n2C([H])([H])[H]'],['[#7]1(:[#6-]2:[#6](:[#7](:[#6]:1-[H])-[#6@@](-[H])(-[H])-[H]):[#7]:[#6](:[#7]:[#6]:2=[#7]\\[H])-[H])-[#6@@](-[H])(-[H])-[H]'],"['InChI=1S/C7H9N5/c1-11-4-12(2)7-5(11)6(8)9-3-10-7/h3-4,8H,1-2H3/b8-6-']",['CFVFKGSAUVLZCW-VURMDHGXSA-N']
79dimethylguanine_cation->neut,7.22,"7,9-dimethylguanine",doi.org/10.1039/B202023H,['[H]c1n(C([H])([H])[H])c2c([O-])nc(N([H])[H])nc2[n+]1C([H])([H])[H]'],['[#8]-[#6]1:[#7]:[#6](:[#7]:[#6]2:[#7+](:[#6](:[#7](:[#6]:2:1)-[#6@@](-[H])(-[H])-[H])-[H])-[#6@@](-[H])(-[H])-[H])-[#7](-[H])-[H]'],"['InChI=1S/C7H9N5O/c1-11-3-12(2)5-4(11)6(13)10-7(8)9-5/h3H,1-2H3,(H2-,8,9,10,13)']",['NAIGKGQHPIGYBB-UHFFFAOYSA-N']
79dimethylhypoxanthine_cation->neut,6.46,"7,9-dimethylhypoxanthine",doi.org/10.1039/B202023H,['[H]c1nc([O-])c2c(n1)[n+](C([H])([H])[H])c([H])n2C([H])([H])[H]'],['[#8]-[#6]1:[#7]:[#6](:[#7]:[#6]2:[#7+](:[#6](:[#7](:[#6]:2:1)-[#6@@](-[H])(-[H])-[H])-[H])-[#6@@](-[H])(-[H])-[H])-[H]'],"['InChI=1S/C7H8N4O/c1-10-4-11(2)6-5(10)7(12)9-3-8-6/h3-4H,1-2H3']",['AJSIAHTWMVCUGM-UHFFFAOYSA-N']
669trimethyladenine_2cation->cation,-0.77,6N6N9N-trimdethyladenine,doi.org/10.1039/B202023H,['[H]c1nc(N(C([H])([H])[H])C([H])([H])[H])c2nc([H])n(C([H])([H])[H])c2n1'],['[#7]1:[#6]2:[#6](:[#7](:[#6]:1-[H])-[#6@@](-[H])(-[H])-[H]):[#7]:[#6](:[#7]:[#6]:2-[#7](-[#6@@](-[H])(-[H])-[H])-[#6@@](-[H])(-[H])-[H])-[H]'],"['InChI=1S/C8H11N5/c1-12(2)7-6-8(10-4-9-7)13(3)5-11-6/h4-5H,1-3H3']",['GQKLJZOIXKFFQC-UHFFFAOYSA-N']
669trimethyladenine_cation->neut,4.18,"N6,N6,N9-trimethyladenine",doi.org/10.1039/B202023H,['[H]c1nc(N(C([H])([H])[H])C([H])([H])[H])c2nc([H])n(C([H])([H])[H])c2n1'],['[#7]1:[#6]2:[#6](:[#7](:[#6]:1-[H])-[#6@@](-[H])(-[H])-[H]):[#7]:[#6](:[#7]:[#6]:2-[#7](-[#6@@](-[H])(-[H])-[H])-[#6@@](-[H])(-[H])-[H])-[H]'],"['InChI=1S/C8H11N5/c1-12(2)7-6-8(10-4-9-7)13(3)5-11-6/h4-5H,1-3H3']",['GQKLJZOIXKFFQC-UHFFFAOYSA-N']
nmethylcitosine_cation->neut,4.5,1-methylcitosine,10.1021/jp5088866,['[H]c1c(N([H])[H])nc(=O)n(C([H])([H])[H])c1[H]'],['[#8]=[#6]1:[#7]:[#6](-[#7](-[H])-[H]):[#6](:[#6](:[#7]:1-[#6@@](-[H])(-[H])-[H])-[H])-[H]'],"['InChI=1S/C5H7N3O/c1-8-3-2-4(6)7-5(8)9/h2-3H,1H3,(H2,6,7,9)']",['HWPZZUQOWRWFDB-UHFFFAOYSA-N']
nmethylguanine_cation->neut,3.1,9-methylguanine,10.1021/jp5088866 ,"['[H]c1n([H])c2c([O-])nc(N([H])[H])nc2[n+]1C([H])([H])[H]', '[H]Oc1nc(N([H])[H])nc2c1nc([H])n2C([H])([H])[H]', '[H]c1nc2c(=O)nc(N([H])[H])n([H])c2n1C([H])([H])[H]', '[H]c1nc2c(=O)n([H])c(N([H])[H])nc2n1C([H])([H])[H]']","['[#8]-[#6]1:[#7]:[#6](:[#7]:[#6]2:[#7+](:[#6](:[#7](:[#6]:2:1)-[H])-[H])-[#6@@](-[H])(-[H])-[H])-[#7](-[H])-[H]', '[#8](-[#6]1:[#7]:[#6](:[#7]:[#6]2:[#7](:[#6](:[#7]:[#6]:2:1)-[H])-[#6@@](-[H])(-[H])-[H])-[#7](-[H])-[H])-[H]', '[#8]=[#6]1:[#7]:[#6](:[#7](:[#6]2:[#7](:[#6](:[#7]:[#6]:2:1)-[H])-[#6@@](-[H])(-[H])-[H])-[H])-[#7](-[H])-[H]', '[#8]=[#6]1:[#7](:[#6](:[#7]:[#6]2:[#7](:[#6](:[#7]:[#6]:2:1)-[H])-[#6@@](-[H])(-[H])-[H])-[#7](-[H])-[H])-[H]']","['InChI=1S/C6H7N5O/c1-11-2-8-3-4(11)9-6(7)10-5(3)12/h2H,1H3,(H3,7,9,10,12)']",['UUWJNBOCAPUTBK-UHFFFAOYSA-N']
nmethylguanine_neut->an,9.5,9-methylguanine,10.1021/jp5088866,"['[H]c1n([H])c2c([O-])nc(N([H])[H])nc2[n+]1C([H])([H])[H]', '[H]Oc1nc(N([H])[H])nc2c1nc([H])n2C([H])([H])[H]', '[H]c1nc2c(=O)nc(N([H])[H])n([H])c2n1C([H])([H])[H]', '[H]c1nc2c(=O)n([H])c(N([H])[H])nc2n1C([H])([H])[H]']","['[#8]-[#6]1:[#7]:[#6](:[#7]:[#6]2:[#7+](:[#6](:[#7](:[#6]:2:1)-[H])-[H])-[#6@@](-[H])(-[H])-[H])-[#7](-[H])-[H]', '[#8](-[#6]1:[#7]:[#6](:[#7]:[#6]2:[#7](:[#6](:[#7]:[#6]:2:1)-[H])-[#6@@](-[H])(-[H])-[H])-[#7](-[H])-[H])-[H]', '[#8]=[#6]1:[#7]:[#6](:[#7](:[#6]2:[#7](:[#6](:[#7]:[#6]:2:1)-[H])-[#6@@](-[H])(-[H])-[H])-[H])-[#7](-[H])-[H]', '[#8]=[#6]1:[#7](:[#6](:[#7]:[#6]2:[#7](:[#6](:[#7]:[#6]:2:1)-[H])-[#6@@](-[H])(-[H])-[H])-[#7](-[H])-[H])-[H]']","['InChI=1S/C6H7N5O/c1-11-2-8-3-4(11)9-6(7)10-5(3)12/h2H,1H3,(H3,7,9,10,12)']",['UUWJNBOCAPUTBK-UHFFFAOYSA-N']
nmethyluracil_neut->an,9.7,1-methyluracil,10.1021/jp5088866,"['[H]c1c([H])n(C([H])([H])[H])c(=O)n([H])c1=O', '[H]Oc1nc(=O)n(C([H])([H])[H])c([H])c1[H]', '[H]Oc1nc(=O)c([H])c([H])n1C([H])([H])[H]']","['[#8]=[#6]1:[#7](:[#6](=[#8]):[#6](:[#6](:[#7]:1-[#6@@](-[H])(-[H])-[H])-[H])-[H])-[H]', '[#8]=[#6]1:[#7]:[#6](-[#8]-[H]):[#6](:[#6](:[#7]:1-[#6@@](-[H])(-[H])-[H])-[H])-[H]', '[#8](-[#6]1:[#7]:[#6](=[#8]):[#6](:[#6](:[#7]:1-[#6@@](-[H])(-[H])-[H])-[H])-[H])-[H]']","['InChI=1S/C5H6N2O2/c1-7-3-2-4(8)6-5(7)9/h2-3H,1H3,(H,6,8,9)']",['XBCXJKGHPABGSD-UHFFFAOYSA-N']
9methylisoguanine_cation->neut,4.5,9-methylisoguanine,10.1021/jp020774x,"['[H]c1nc2c(N([H])[H])n([H])c(=O)nc2n1C([H])([H])[H]', '[H]c1nc2c(N([H])[H])nc(=O)n([H])c2n1C([H])([H])[H]', '[H]Oc1nc(N([H])[H])c2nc([H])n(C([H])([H])[H])c2n1', '[H]c1n([H])c2c(N([H])[H])nc([O-])nc2[n+]1C([H])([H])[H]']","['[#8]=[#6]1:[#7](:[#6](-[#7](-[H])-[H]):[#6]2:[#7]:[#6](:[#7](:[#6]:2:[#7]:1)-[#6@@](-[H])(-[H])-[H])-[H])-[H]', '[#8]=[#6]1:[#7]:[#6](-[#7](-[H])-[H]):[#6]2:[#7]:[#6](:[#7](:[#6]:2:[#7]:1-[H])-[#6@@](-[H])(-[H])-[H])-[H]', '[#8](-[#6]1:[#7]:[#6](-[#7](-[H])-[H]):[#6]2:[#7]:[#6](:[#7](:[#6]:2:[#7]:1)-[#6@@](-[H])(-[H])-[H])-[H])-[H]', '[#8]-[#6]1:[#7]:[#6](-[#7](-[H])-[H]):[#6]2:[#7](:[#6](:[#7+](:[#6]:2:[#7]:1)-[#6@@](-[H])(-[H])-[H])-[H])-[H]']","['InChI=1S/C6H7N5O/c1-11-2-8-3-4(7)9-6(12)10-5(3)11/h2H,1H3,(H3,7,9,10,12)']",['AXXWYBMTTIBGJZ-UHFFFAOYSA-N']
9methylisoguanine_neut->an,9,9-methylisoguanine,10.1021/jp020774x,"['[H]c1nc2c(N([H])[H])n([H])c(=O)nc2n1C([H])([H])[H]', '[H]c1nc2c(N([H])[H])nc(=O)n([H])c2n1C([H])([H])[H]', '[H]Oc1nc(N([H])[H])c2nc([H])n(C([H])([H])[H])c2n1', '[H]c1n([H])c2c(N([H])[H])nc([O-])nc2[n+]1C([H])([H])[H]']","['[#8]=[#6]1:[#7](:[#6](-[#7](-[H])-[H]):[#6]2:[#7]:[#6](:[#7](:[#6]:2:[#7]:1)-[#6@@](-[H])(-[H])-[H])-[H])-[H]', '[#8]=[#6]1:[#7]:[#6](-[#7](-[H])-[H]):[#6]2:[#7]:[#6](:[#7](:[#6]:2:[#7]:1-[H])-[#6@@](-[H])(-[H])-[H])-[H]', '[#8](-[#6]1:[#7]:[#6](-[#7](-[H])-[H]):[#6]2:[#7]:[#6](:[#7](:[#6]:2:[#7]:1)-[#6@@](-[H])(-[H])-[H])-[H])-[H]', '[#8]-[#6]1:[#7]:[#6](-[#7](-[H])-[H]):[#6]2:[#7](:[#6](:[#7+](:[#6]:2:[#7]:1)-[#6@@](-[H])(-[H])-[H])-[H])-[H]']","['InChI=1S/C6H7N5O/c1-11-2-8-3-4(7)9-6(12)10-5(3)11/h2H,1H3,(H3,7,9,10,12)']",['AXXWYBMTTIBGJZ-UHFFFAOYSA-N']
9methyladenine_2cation->cation,-0.64,9-methyladenine,doi.org/10.1039/B202023H,['[H]c1nc(N([H])[H])c2nc([H])n(C([H])([H])[H])c2n1'],['[#7]1:[#6]2:[#6](:[#7](:[#6]:1-[H])-[#6@@](-[H])(-[H])-[H]):[#7]:[#6](:[#7]:[#6]:2-[#7](-[H])-[H])-[H]'],"['InChI=1S/C6H7N5/c1-11-3-10-4-5(7)8-2-9-6(4)11/h2-3H,1H3,(H2,7,8,9)']",['WRXCXOUDSPTXNX-UHFFFAOYSA-N']
9methyladenine_cation->neut,4.1,9-methyladenine,doi.org/10.1039/B202023H,['[H]c1nc(N([H])[H])c2nc([H])n(C([H])([H])[H])c2n1'],['[#7]1:[#6]2:[#6](:[#7](:[#6]:1-[H])-[#6@@](-[H])(-[H])-[H]):[#7]:[#6](:[#7]:[#6]:2-[#7](-[H])-[H])-[H]'],"['InChI=1S/C6H7N5/c1-11-3-10-4-5(7)8-2-9-6(4)11/h2-3H,1H3,(H2,7,8,9)']",['WRXCXOUDSPTXNX-UHFFFAOYSA-N']
9methylhypoxanthine_cation->neut,1.87,9-methylhypoxanthine,doi.org/10.1039/B202023H,"['[H]c1nc2c(nc([H])n2C([H])([H])[H])c(=O)n1[H]', '[H]Oc1nc([H])nc2c1nc([H])n2C([H])([H])[H]', '[H]c1nc(=O)c2nc([H])n(C([H])([H])[H])c2n1[H]', '[H]c1nc([O-])c2c(n1)[n+](C([H])([H])[H])c([H])n2[H]']","['[#8]=[#6]1:[#7](:[#6](:[#7]:[#6]2:[#7](:[#6](:[#7]:[#6]:2:1)-[H])-[#6@@](-[H])(-[H])-[H])-[H])-[H]', '[#8](-[#6]1:[#7]:[#6](:[#7]:[#6]2:[#7](:[#6](:[#7]:[#6]:2:1)-[H])-[#6@@](-[H])(-[H])-[H])-[H])-[H]', '[#8]=[#6]1:[#7]:[#6](:[#7](:[#6]2:[#7](:[#6](:[#7]:[#6]:2:1)-[H])-[#6@@](-[H])(-[H])-[H])-[H])-[H]', '[#8]-[#6]1:[#7]:[#6](:[#7]:[#6]2:[#7+](:[#6](:[#7](:[#6]:2:1)-[H])-[H])-[#6@@](-[H])(-[H])-[H])-[H]']","['InChI=1S/C6H6N4O/c1-10-3-9-4-5(10)7-2-8-6(4)11/h2-3H,1H3,(H,7,8,11)']",['PESGUQRDJASXOR-UHFFFAOYSA-N']
9methylhypoxanthine_neut->an,9.21,9-methylhypoxanthine,doi.org/10.1039/B202023H,"['[H]c1nc2c(nc([H])n2C([H])([H])[H])c(=O)n1[H]', '[H]Oc1nc([H])nc2c1nc([H])n2C([H])([H])[H]', '[H]c1nc(=O)c2nc([H])n(C([H])([H])[H])c2n1[H]', '[H]c1nc([O-])c2c(n1)[n+](C([H])([H])[H])c([H])n2[H]']","['[#8]=[#6]1:[#7](:[#6](:[#7]:[#6]2:[#7](:[#6](:[#7]:[#6]:2:1)-[H])-[#6@@](-[H])(-[H])-[H])-[H])-[H]', '[#8](-[#6]1:[#7]:[#6](:[#7]:[#6]2:[#7](:[#6](:[#7]:[#6]:2:1)-[H])-[#6@@](-[H])(-[H])-[H])-[H])-[H]', '[#8]=[#6]1:[#7]:[#6](:[#7](:[#6]2:[#7](:[#6](:[#7]:[#6]:2:1)-[H])-[#6@@](-[H])(-[H])-[H])-[H])-[H]', '[#8]-[#6]1:[#7]:[#6](:[#7]:[#6]2:[#7+](:[#6](:[#7](:[#6]:2:1)-[H])-[H])-[#6@@](-[H])(-[H])-[H])-[H]']","['InChI=1S/C6H6N4O/c1-10-3-9-4-5(10)7-2-8-6(4)11/h2-3H,1H3,(H,7,8,11)']",['PESGUQRDJASXOR-UHFFFAOYSA-N']