compn,pKa,correct name,reference,smiles,smarts,inchi,inchiKey
pentamethylguanidine_cation->neut,13.8,pentamethylguanidine,"ISBN: 978-0-470-51800-7, cap. II Superbases for Organic Synthesis: Guanidines, Amidines, Phosphazenes and Related Organocatalysts",['[H]C([H])([H])N=C(N(C([H])([H])[H])C([H])([H])[H])N(C([H])([H])[H])C([H])([H])[H]'],['[#6](-[#7](-[#6@@](-[H])(-[H])-[H])-[#6@@](-[H])(-[H])-[H])(=[#7]-[#6@@](-[H])(-[H])-[H])-[#7](-[#6@@](-[H])(-[H])-[H])-[#6@@](-[H])(-[H])-[H]'],['InChI=1S/C6H15N3/c1-7-6(8(2)3)9(4)5/h1-5H3'],['ISNICOKBNZOJQG-UHFFFAOYSA-N']
2phenyl1133tetramethylguanidine_cation->neut,11.77,"2-phenyl-1,1,3,3-tetramethylguanidine",10.1039/b602797k,['[H]c1c([H])c([H])c(N=C(N(C([H])([H])[H])C([H])([H])[H])N(C([H])([H])[H])C([H])([H])[H])c([H])c1[H]'],['[#6](-[#7](-[#6@@](-[H])(-[H])-[H])-[#6@@](-[H])(-[H])-[H])(=[#7]-[#6]1:[#6](:[#6](:[#6](:[#6](:[#6]:1-[H])-[H])-[H])-[H])-[H])-[#7](-[#6@@](-[H])(-[H])-[H])-[#6@@](-[H])(-[H])-[H]'],"['InChI=1S/C11H17N3/c1-13(2)11(14(3)4)12-10-8-6-5-7-9-10/h5-9H,1-4H3']",['KVAONWQEUDYKTG-UHFFFAOYSA-N']
2chlorophenyliminotripyrrolizinophosphorane_cation->neut,9.98,2chlorphenyl-iminotrispyrrolizinophosphorane,10.1039/b602797k,['[H]c1c([H])c([H])c(N=P(N2C([H])([H])C([H])([H])C([H])([H])C2([H])[H])(N2C([H])([H])C([H])([H])C([H])([H])C2([H])[H])N2C([H])([H])C([H])([H])C([H])([H])C2([H])[H])c(Cl)c1[H]'],['[#7]1(-[#15@](-[#7]2-[#6@](-[#6@](-[#6@@](-[#6@@]-2(-[H])-[H])(-[H])-[H])(-[H])-[H])(-[H])-[H])(-[#7]2-[#6@](-[#6@](-[#6@@](-[#6@@]-2(-[H])-[H])(-[H])-[H])(-[H])-[H])(-[H])-[H])=[#7]-[#6]2:[#6](:[#6](:[#6](:[#6](:[#6]:2-[H])-[H])-[H])-[H])-[#17])-[#6@](-[#6@](-[#6@@](-[#6@@]-1(-[H])-[H])(-[H])-[H])(-[H])-[H])(-[H])-[H]'],"['InChI=1S/C18H28ClN4P/c19-17-9-1-2-10-18(17)20-24(21-11-3-4-12-21,22-13-5-6-14-22)23-15-7-8-16-23/h1-2,9-10H,3-8,11-16H2']",['LGKDGXFVKNODDM-UHFFFAOYSA-N']
4bromophenyliminotripyrrolizinophosphorane_cation->neut,11.23,4bromophenyl-iminotrispyrrolizinophosphorane,10.1039/b602797k,['[H]c1c([H])c(N=P(N2C([H])([H])C([H])([H])C([H])([H])C2([H])[H])(N2C([H])([H])C([H])([H])C([H])([H])C2([H])[H])N2C([H])([H])C([H])([H])C([H])([H])C2([H])[H])c([H])c([H])c1Br'],['[#7]1(-[#15@](-[#7]2-[#6@](-[#6@](-[#6@@](-[#6@@]-2(-[H])-[H])(-[H])-[H])(-[H])-[H])(-[H])-[H])(-[#7]2-[#6@](-[#6@](-[#6@@](-[#6@@]-2(-[H])-[H])(-[H])-[H])(-[H])-[H])(-[H])-[H])=[#7]-[#6]2:[#6](:[#6](:[#6](:[#6](:[#6]:2-[H])-[H])-[#35])-[H])-[H])-[#6@](-[#6@](-[#6@@](-[#6@@]-1(-[H])-[H])(-[H])-[H])(-[H])-[H])(-[H])-[H]'],"['InChI=1S/C18H28BrN4P/c19-17-7-9-18(10-8-17)20-24(21-11-1-2-12-21,22-13-3-4-14-22)23-15-5-6-16-23/h7-10H,1-6,11-16H2']",['SFLMCSNWGYNFQJ-UHFFFAOYSA-N']
4cf3phenyliminotripyrrolizinophosphorane_cation->neut,10.59,4-trifluoromethylphenyl-iminotrispyrrolizinophosphorane,10.1039/b602797k,['[H]c1c([H])c(C(F)(F)F)c([H])c([H])c1N=P(N1C([H])([H])C([H])([H])C([H])([H])C1([H])[H])(N1C([H])([H])C([H])([H])C([H])([H])C1([H])[H])N1C([H])([H])C([H])([H])C([H])([H])C1([H])[H]'],['[#7]1(-[#15@](-[#7]2-[#6@](-[#6@](-[#6@@](-[#6@@]-2(-[H])-[H])(-[H])-[H])(-[H])-[H])(-[H])-[H])(-[#7]2-[#6@](-[#6@](-[#6@@](-[#6@@]-2(-[H])-[H])(-[H])-[H])(-[H])-[H])(-[H])-[H])=[#7]-[#6]2:[#6](:[#6](:[#6](:[#6](:[#6]:2-[H])-[H])-[#6@@](-[#9])(-[#9])-[#9])-[H])-[H])-[#6@](-[#6@](-[#6@@](-[#6@@]-1(-[H])-[H])(-[H])-[H])(-[H])-[H])(-[H])-[H]'],"['InChI=1S/C19H28F3N4P/c20-19(21,22)17-7-9-18(10-8-17)23-27(24-11-1-2-12-24,25-13-3-4-14-25)26-15-5-6-16-26/h7-10H,1-6,11-16H2']",['MDJFYWKFFRJRJG-UHFFFAOYSA-N']
4chloro2nitrophenyliminotripyrrolizinophosphorane_cation->neut,8.37,4-chloro-2-nitrophenyl-iminotrispyrrolizinophosphorane,10.1039/b602797k,['[H]c1c([H])c(N=P(N2C([H])([H])C([H])([H])C([H])([H])C2([H])[H])(N2C([H])([H])C([H])([H])C([H])([H])C2([H])[H])N2C([H])([H])C([H])([H])C([H])([H])C2([H])[H])c([N+](=O)[O-])c([H])c1Cl'],['[#7]1(-[#15@](-[#7]2-[#6@](-[#6@](-[#6@@](-[#6@@]-2(-[H])-[H])(-[H])-[H])(-[H])-[H])(-[H])-[H])(-[#7]2-[#6@](-[#6@](-[#6@@](-[#6@@]-2(-[H])-[H])(-[H])-[H])(-[H])-[H])(-[H])-[H])=[#7]-[#6]2:[#6](:[#6](:[#6](:[#6](:[#6]:2-[H])-[H])-[#17])-[H])-[#7+](=[#8])-[#8-])-[#6@](-[#6@](-[#6@@](-[#6@@]-1(-[H])-[H])(-[H])-[H])(-[H])-[H])(-[H])-[H]'],"['InChI=1S/C18H27ClN5O2P/c19-16-7-8-17(18(15-16)24(25)26)20-27(21-9-1-2-10-21,22-11-3-4-12-22)23-13-5-6-14-23/h7-8,15H,1-6,9-14H2']",['NEDWUDIWEOXJHX-UHFFFAOYSA-N']
4dimeaminophenyliminotripyrrolizinophosphorane_cation->neut,12,4-dimethylaminophenyl-iminotrispyrrolizinophosphorane,10.1039/b602797k,['[H]c1c([H])c(N(C([H])([H])[H])C([H])([H])[H])c([H])c([H])c1N=P(N1C([H])([H])C([H])([H])C([H])([H])C1([H])[H])(N1C([H])([H])C([H])([H])C([H])([H])C1([H])[H])N1C([H])([H])C([H])([H])C([H])([H])C1([H])[H]'],['[#7]1(-[#15@](-[#7]2-[#6@](-[#6@](-[#6@@](-[#6@@]-2(-[H])-[H])(-[H])-[H])(-[H])-[H])(-[H])-[H])(-[#7]2-[#6@](-[#6@](-[#6@@](-[#6@@]-2(-[H])-[H])(-[H])-[H])(-[H])-[H])(-[H])-[H])=[#7]-[#6]2:[#6](:[#6](:[#6](:[#6](:[#6]:2-[H])-[H])-[#7](-[#6@@](-[H])(-[H])-[H])-[#6@@](-[H])(-[H])-[H])-[H])-[H])-[#6@](-[#6@](-[#6@@](-[#6@@]-1(-[H])-[H])(-[H])-[H])(-[H])-[H])(-[H])-[H]'],"['InChI=1S/C20H34N5P/c1-22(2)20-11-9-19(10-12-20)21-26(23-13-3-4-14-23,24-15-5-6-16-24)25-17-7-8-18-25/h9-12H,3-8,13-18H2,1-2H3']",['BAXNDJHJIJRSCX-UHFFFAOYSA-N']
4mef32nitrophenyliminotripyrrolizinophosphorane_cation->neut,8.14,4-trifluoromethyl-2-nitro-phenyl-iminotrispyrrolizinophosphorane,10.1039/b602797k,['[H]c1c([H])c(C(F)(F)F)c([H])c([N+](=O)[O-])c1N=P(N1C([H])([H])C([H])([H])C([H])([H])C1([H])[H])(N1C([H])([H])C([H])([H])C([H])([H])C1([H])[H])N1C([H])([H])C([H])([H])C([H])([H])C1([H])[H]'],['[#7]1(-[#15@](-[#7]2-[#6@](-[#6@](-[#6@@](-[#6@@]-2(-[H])-[H])(-[H])-[H])(-[H])-[H])(-[H])-[H])(-[#7]2-[#6@](-[#6@](-[#6@@](-[#6@@]-2(-[H])-[H])(-[H])-[H])(-[H])-[H])(-[H])-[H])=[#7]-[#6]2:[#6](:[#6](:[#6](:[#6](:[#6]:2-[H])-[H])-[#6@@](-[#9])(-[#9])-[#9])-[H])-[#7+](=[#8])-[#8-])-[#6@](-[#6@](-[#6@@](-[#6@@]-1(-[H])-[H])(-[H])-[H])(-[H])-[H])(-[H])-[H]'],"['InChI=1S/C19H27F3N5O2P/c20-19(21,22)16-7-8-17(18(15-16)27(28)29)23-30(24-9-1-2-10-24,25-11-3-4-12-25)26-13-5-6-14-26/h7-8,15H,1-6,9-14H2']",['VKLXJMTZCWLKCW-UHFFFAOYSA-N']
4meophenyliminotripyrrolizinophosphorane_cation->neut,11.94,4-methoxyphenyl-iminotrispyrrolizinophosphorane,10.1039/b602797k,['[H]c1c([H])c(OC([H])([H])[H])c([H])c([H])c1N=P(N1C([H])([H])C([H])([H])C([H])([H])C1([H])[H])(N1C([H])([H])C([H])([H])C([H])([H])C1([H])[H])N1C([H])([H])C([H])([H])C([H])([H])C1([H])[H]'],['[#7]1(-[#15@](-[#7]2-[#6@](-[#6@](-[#6@@](-[#6@@]-2(-[H])-[H])(-[H])-[H])(-[H])-[H])(-[H])-[H])(-[#7]2-[#6@](-[#6@](-[#6@@](-[#6@@]-2(-[H])-[H])(-[H])-[H])(-[H])-[H])(-[H])-[H])=[#7]-[#6]2:[#6](:[#6](:[#6](:[#6](:[#6]:2-[H])-[H])-[#8]-[#6@@](-[H])(-[H])-[H])-[H])-[H])-[#6@](-[#6@](-[#6@@](-[#6@@]-1(-[H])-[H])(-[H])-[H])(-[H])-[H])(-[H])-[H]'],"['InChI=1S/C19H31N4OP/c1-24-19-10-8-18(9-11-19)20-25(21-12-2-3-13-21,22-14-4-5-15-22)23-16-6-7-17-23/h8-11H,2-7,12-17H2,1H3']",['WDYMWSBUQNZESM-UHFFFAOYSA-N']
4nitrophenyliminotripyrrolizinophosphorane_cation->neut,9.22,4-nitrophenyl-iminotrispyrrolizinophosphorane,10.1039/b602797k,['[H]c1c([H])c([N+](=O)[O-])c([H])c([H])c1N=P(N1C([H])([H])C([H])([H])C([H])([H])C1([H])[H])(N1C([H])([H])C([H])([H])C([H])([H])C1([H])[H])N1C([H])([H])C([H])([H])C([H])([H])C1([H])[H]'],['[#7]1(-[#15@](-[#7]2-[#6@](-[#6@](-[#6@@](-[#6@@]-2(-[H])-[H])(-[H])-[H])(-[H])-[H])(-[H])-[H])(-[#7]2-[#6@](-[#6@](-[#6@@](-[#6@@]-2(-[H])-[H])(-[H])-[H])(-[H])-[H])(-[H])-[H])=[#7]-[#6]2:[#6](:[#6](:[#6](:[#6](:[#6]:2-[H])-[H])-[#7+](=[#8])-[#8-])-[H])-[H])-[#6@](-[#6@](-[#6@@](-[#6@@]-1(-[H])-[H])(-[H])-[H])(-[H])-[H])(-[H])-[H]'],"['InChI=1S/C18H28N5O2P/c24-23(25)18-9-7-17(8-10-18)19-26(20-11-1-2-12-20,21-13-3-4-14-21)22-15-5-6-16-22/h7-10H,1-6,11-16H2']",['GFEJITNLRGLFOG-UHFFFAOYSA-N']
5chloro2nitrophenyliminotripyrrolizinophosphorane_cation->neut,8.33,5-chloro-2-nitrophenyl-iminotrispyrrolizinophosphorane,10.1039/b602797k,['[H]c1c([H])c([N+](=O)[O-])c(N=P(N2C([H])([H])C([H])([H])C([H])([H])C2([H])[H])(N2C([H])([H])C([H])([H])C([H])([H])C2([H])[H])N2C([H])([H])C([H])([H])C([H])([H])C2([H])[H])c([H])c1Cl'],['[#7]1(-[#15@](-[#7]2-[#6@](-[#6@](-[#6@@](-[#6@@]-2(-[H])-[H])(-[H])-[H])(-[H])-[H])(-[H])-[H])(-[#7]2-[#6@](-[#6@](-[#6@@](-[#6@@]-2(-[H])-[H])(-[H])-[H])(-[H])-[H])(-[H])-[H])=[#7]-[#6]2:[#6](:[#6](:[#6](:[#6](:[#6]:2-[H])-[#17])-[H])-[H])-[#7+](=[#8])-[#8-])-[#6@](-[#6@](-[#6@@](-[#6@@]-1(-[H])-[H])(-[H])-[H])(-[H])-[H])(-[H])-[H]'],"['InChI=1S/C18H27ClN5O2P/c19-16-7-8-18(24(25)26)17(15-16)20-27(21-9-1-2-10-21,22-11-3-4-12-22)23-13-5-6-14-23/h7-8,15H,1-6,9-14H2']",['MVUAVUKJZFWYFG-UHFFFAOYSA-N']
24dinitrophenyliminotripyrrolizinophosphorane_cation->neut,7.34,"2,5-dinitrophenyl-iminotrispyrrolizinophosphorane",10.1039/b602797k,['[H]c1c([H])c([N+](=O)[O-])c([H])c([N+](=O)[O-])c1N=P(N1C([H])([H])C([H])([H])C([H])([H])C1([H])[H])(N1C([H])([H])C([H])([H])C([H])([H])C1([H])[H])N1C([H])([H])C([H])([H])C([H])([H])C1([H])[H]'],['[#7]1(-[#15@](-[#7]2-[#6@](-[#6@](-[#6@@](-[#6@@]-2(-[H])-[H])(-[H])-[H])(-[H])-[H])(-[H])-[H])(-[#7]2-[#6@](-[#6@](-[#6@@](-[#6@@]-2(-[H])-[H])(-[H])-[H])(-[H])-[H])(-[H])-[H])=[#7]-[#6]2:[#6](:[#6](:[#6](:[#6](:[#6]:2-[H])-[H])-[#7+](=[#8])-[#8-])-[H])-[#7+](=[#8])-[#8-])-[#6@](-[#6@](-[#6@@](-[#6@@]-1(-[H])-[H])(-[H])-[H])(-[H])-[H])(-[H])-[H]'],"['InChI=1S/C18H27N6O4P/c25-23(26)16-7-8-17(18(15-16)24(27)28)19-29(20-9-1-2-10-20,21-11-3-4-12-21)22-13-5-6-14-22/h7-8,15H,1-6,9-14H2']",['BINBZRWPOXQLTD-UHFFFAOYSA-N']
25dichlorophenyliminotripyrrolizinophosphorane_cation->neut,9.21,"2,5-dichlorophenyl-iminotrispyrrolizinophosphorane",10.1039/b602797k,['[H]c1c([H])c(Cl)c(N=P(N2C([H])([H])C([H])([H])C([H])([H])C2([H])[H])(N2C([H])([H])C([H])([H])C([H])([H])C2([H])[H])N2C([H])([H])C([H])([H])C([H])([H])C2([H])[H])c([H])c1Cl'],['[#7]1(-[#15@](-[#7]2-[#6@](-[#6@](-[#6@@](-[#6@@]-2(-[H])-[H])(-[H])-[H])(-[H])-[H])(-[H])-[H])(-[#7]2-[#6@](-[#6@](-[#6@@](-[#6@@]-2(-[H])-[H])(-[H])-[H])(-[H])-[H])(-[H])-[H])=[#7]-[#6]2:[#6](:[#6](:[#6](:[#6](:[#6]:2-[H])-[#17])-[H])-[H])-[#17])-[#6@](-[#6@](-[#6@@](-[#6@@]-1(-[H])-[H])(-[H])-[H])(-[H])-[H])(-[H])-[H]'],"['InChI=1S/C18H27Cl2N4P/c19-16-7-8-17(20)18(15-16)21-25(22-9-1-2-10-22,23-11-3-4-12-23)24-13-5-6-14-24/h7-8,15H,1-6,9-14H2']",['UHUCLRKNQALDRP-UHFFFAOYSA-N']
26dichloro4nitrophenyliminotripyrrolizinophosphorane_cation->neut,7.5,"2,5-dichloro-4-nitrophenyl-iminotrispyrrolizinophosphorane",10.1039/b602797k,['[H]c1c(Cl)c(N=P(N2C([H])([H])C([H])([H])C([H])([H])C2([H])[H])(N2C([H])([H])C([H])([H])C([H])([H])C2([H])[H])N2C([H])([H])C([H])([H])C([H])([H])C2([H])[H])c(Cl)c([H])c1[N+](=O)[O-]'],['[#7]1(-[#15@](-[#7]2-[#6@](-[#6@](-[#6@@](-[#6@@]-2(-[H])-[H])(-[H])-[H])(-[H])-[H])(-[H])-[H])(-[#7]2-[#6@](-[#6@](-[#6@@](-[#6@@]-2(-[H])-[H])(-[H])-[H])(-[H])-[H])(-[H])-[H])=[#7]-[#6]2:[#6](:[#6](:[#6](:[#6](:[#6]:2-[#17])-[H])-[#7+](=[#8])-[#8-])-[H])-[#17])-[#6@](-[#6@](-[#6@@](-[#6@@]-1(-[H])-[H])(-[H])-[H])(-[H])-[H])(-[H])-[H]'],"['InChI=1S/C18H26Cl2N5O2P/c19-16-13-15(25(26)27)14-17(20)18(16)21-28(22-7-1-2-8-22,23-9-3-4-10-23)24-11-5-6-12-24/h13-14H,1-12H2']",['DIJVARYUUWLVAU-UHFFFAOYSA-N']
26dichloroophenyliminotripyrrolizinophosphorane_cation->neut,9,"2,6-dichlorophenyl-iminotrispyrrolizinophosphorane",10.1039/b602797k,['[H]c1c([H])c(Cl)c(N=P(N2C([H])([H])C([H])([H])C([H])([H])C2([H])[H])(N2C([H])([H])C([H])([H])C([H])([H])C2([H])[H])N2C([H])([H])C([H])([H])C([H])([H])C2([H])[H])c(Cl)c1[H]'],['[#7]1(-[#15@](-[#7]2-[#6@](-[#6@](-[#6@@](-[#6@@]-2(-[H])-[H])(-[H])-[H])(-[H])-[H])(-[H])-[H])(-[#7]2-[#6@](-[#6@](-[#6@@](-[#6@@]-2(-[H])-[H])(-[H])-[H])(-[H])-[H])(-[H])-[H])=[#7]-[#6]2:[#6](:[#6](:[#6](:[#6](:[#6]:2-[#17])-[H])-[H])-[H])-[#17])-[#6@](-[#6@](-[#6@@](-[#6@@]-1(-[H])-[H])(-[H])-[H])(-[H])-[H])(-[H])-[H]'],"['InChI=1S/C18H27Cl2N4P/c19-16-8-7-9-17(20)18(16)21-25(22-10-1-2-11-22,23-12-3-4-13-23)24-14-5-6-15-24/h7-9H,1-6,10-15H2']",['VQJCWJQBQHXCKS-UHFFFAOYSA-N']
iminotripyrrolizinophosphorane_cation->neut,13.93,iminotripyrrolizinophosphorane,10.1039/b602797k,['[H]N=P(N1C([H])([H])C([H])([H])C([H])([H])C1([H])[H])(N1C([H])([H])C([H])([H])C([H])([H])C1([H])[H])N1C([H])([H])C([H])([H])C([H])([H])C1([H])[H]'],['[#7]1(-[#15@](-[#7]2-[#6@](-[#6@](-[#6@@](-[#6@@]-2(-[H])-[H])(-[H])-[H])(-[H])-[H])(-[H])-[H])(-[#7]2-[#6@](-[#6@](-[#6@@](-[#6@@]-2(-[H])-[H])(-[H])-[H])(-[H])-[H])(-[H])-[H])=[#7]-[H])-[#6@](-[#6@](-[#6@@](-[#6@@]-1(-[H])-[H])(-[H])-[H])(-[H])-[H])(-[H])-[H]'],"['InChI=1S/C12H25N4P/c13-17(14-7-1-2-8-14,15-9-3-4-10-15)16-11-5-6-12-16/h13H,1-12H2']",['KIIXMQLFSPAAES-UHFFFAOYSA-N']
phenyliminotripyrrolizinophosphorane_cation->neut,11.6,phenyliminotrispyrrolizinophosphorane,10.1039/b602797k,['[H]c1c([H])c([H])c(N=P(N2C([H])([H])C([H])([H])C([H])([H])C2([H])[H])(N2C([H])([H])C([H])([H])C([H])([H])C2([H])[H])N2C([H])([H])C([H])([H])C([H])([H])C2([H])[H])c([H])c1[H]'],['[#7]1(-[#15@](-[#7]2-[#6@](-[#6@](-[#6@@](-[#6@@]-2(-[H])-[H])(-[H])-[H])(-[H])-[H])(-[H])-[H])(-[#7]2-[#6@](-[#6@](-[#6@@](-[#6@@]-2(-[H])-[H])(-[H])-[H])(-[H])-[H])(-[H])-[H])=[#7]-[#6]2:[#6](:[#6](:[#6](:[#6](:[#6]:2-[H])-[H])-[H])-[H])-[H])-[#6@](-[#6@](-[#6@@](-[#6@@]-1(-[H])-[H])(-[H])-[H])(-[H])-[H])(-[H])-[H]'],"['InChI=1S/C18H29N4P/c1-2-10-18(11-3-1)19-23(20-12-4-5-13-20,21-14-6-7-15-21)22-16-8-9-17-22/h1-3,10-11H,4-9,12-17H2']",['WWVZVSBXHPBTKV-UHFFFAOYSA-N']
phenyltrisdimethylamizinophosphorane_cation->neut,10.6,phenyliminotrisdimethylaminophosphorane,10.1039/b602797k,['[H]c1c([H])c([H])c(N=P(N(C([H])([H])[H])C([H])([H])[H])(N(C([H])([H])[H])C([H])([H])[H])N(C([H])([H])[H])C([H])([H])[H])c([H])c1[H]'],['[#7](-[#15@@](-[#7](-[#6@](-[H])(-[H])-[H])-[#6@](-[H])(-[H])-[H])(-[#7](-[#6@](-[H])(-[H])-[H])-[#6@](-[H])(-[H])-[H])=[#7]-[#6]1:[#6](:[#6](:[#6](:[#6](:[#6]:1-[H])-[H])-[H])-[H])-[H])(-[#6@](-[H])(-[H])-[H])-[#6@](-[H])(-[H])-[H]'],"['InChI=1S/C12H23N4P/c1-14(2)17(15(3)4,16(5)6)13-12-10-8-7-9-11-12/h7-11H,1-6H3']",['KIEQPXTUHQNADD-UHFFFAOYSA-N']
trisdimethylamizinophosphorane_cation->neut,13.32,iminotrisdimethylaminophosphorane,10.1039/b602797k,['[H]N=P(N(C([H])([H])[H])C([H])([H])[H])(N(C([H])([H])[H])C([H])([H])[H])N(C([H])([H])[H])C([H])([H])[H]'],['[#7](-[#15@@](-[#7](-[#6@](-[H])(-[H])-[H])-[#6@](-[H])(-[H])-[H])(-[#7](-[#6@](-[H])(-[H])-[H])-[#6@](-[H])(-[H])-[H])=[#7]-[H])(-[#6@](-[H])(-[H])-[H])-[#6@](-[H])(-[H])-[H]'],"['InChI=1S/C6H19N4P/c1-8(2)11(7,9(3)4)10(5)6/h7H,1-6H3']",['GKTNLYAAZKKMTQ-UHFFFAOYSA-N']
18dimethylaminonaphtalene_cation->neut,12.1,"1,8-bisdimethylaminonaphtlalene",https://doi.org/10.1002/anie.198808653,['[H]c1c([H])c(N(C([H])([H])[H])C([H])([H])[H])c2c(N(C([H])([H])[H])C([H])([H])[H])c([H])c([H])c([H])c2c1[H]'],['[#6]1(:[#6](:[#6]2:[#6](:[#6](:[#6]:1-[H])-[#7](-[#6@@](-[H])(-[H])-[H])-[#6@@](-[H])(-[H])-[H]):[#6](:[#6](:[#6](:[#6]:2-[H])-[H])-[H])-[#7](-[#6@@](-[H])(-[H])-[H])-[#6@@](-[H])(-[H])-[H])-[H])-[H]'],"['InChI=1S/C14H18N2/c1-15(2)12-9-5-7-11-8-6-10-13(14(11)12)16(3)4/h5-10H,1-4H3']",['GJFNRSDCSTVPCJ-UHFFFAOYSA-N']
azobenzene34diol_neut->an,7.5,"azobenzene-3,4-diol",10.2478/s11532-010-0001-7,['[H]Oc1c([H])c([H])c(/N=N/c2c([H])c([H])c([H])c([H])c2[H])c([H])c1O[H]'],['[#8](-[#6]1:[#6](:[#6](/[#7]=[#7]/[#6]2:[#6](:[#6](:[#6](:[#6](:[#6]:2-[H])-[H])-[H])-[H])-[H]):[#6](:[#6](:[#6]:1-[#8]-[H])-[H])-[H])-[H])-[H]'],"['InChI=1S/C12H10N2O2/c15-11-7-6-10(8-12(11)16)14-13-9-4-2-1-3-5-9/h1-8,15-16H/b14-13+']",['YEKGDBDTKZUJES-BUHFOSPRSA-N']
azobenzene34diol_an->2an,11.45,"azobenzene-3,4-diol",10.2478/s11532-010-0001-7,['[H]Oc1c([H])c([H])c(/N=N/c2c([H])c([H])c([H])c([H])c2[H])c([H])c1O[H]'],['[#8](-[#6]1:[#6](:[#6](/[#7]=[#7]/[#6]2:[#6](:[#6](:[#6](:[#6](:[#6]:2-[H])-[H])-[H])-[H])-[H]):[#6](:[#6](:[#6]:1-[#8]-[H])-[H])-[H])-[H])-[H]'],"['InChI=1S/C12H10N2O2/c15-11-7-6-10(8-12(11)16)14-13-9-4-2-1-3-5-9/h1-8,15-16H/b14-13+']",['YEKGDBDTKZUJES-BUHFOSPRSA-N']
4nitroazobenzene34diol_neut->an,6.87,"4-nitro-azobenzene-3,4-diol",10.2478/s11532-010-0001-7,['[H]Oc1c([H])c([H])c(/N=N/c2c([H])c([H])c([N+](=O)[O-])c([H])c2[H])c([H])c1O[H]'],['[#8](-[#6]1:[#6](:[#6](/[#7]=[#7]/[#6]2:[#6](:[#6](:[#6](:[#6](:[#6]:2-[H])-[H])-[#7+](=[#8])-[#8-])-[H])-[H]):[#6](:[#6](:[#6]:1-[#8]-[H])-[H])-[H])-[H])-[H]'],"['InChI=1S/C12H9N3O4/c16-11-6-3-9(7-12(11)17)14-13-8-1-4-10(5-2-8)15(18)19/h1-7,16-17H/b14-13+']",['DGOZWUSVOBKXNR-BUHFOSPRSA-N']
4nitroazobenzene34diol_an->2an,11.25,"4-nitro-azobenzene-3,4-diol",10.2478/s11532-010-0001-7,['[H]Oc1c([H])c([H])c(/N=N/c2c([H])c([H])c([N+](=O)[O-])c([H])c2[H])c([H])c1O[H]'],['[#8](-[#6]1:[#6](:[#6](/[#7]=[#7]/[#6]2:[#6](:[#6](:[#6](:[#6](:[#6]:2-[H])-[H])-[#7+](=[#8])-[#8-])-[H])-[H]):[#6](:[#6](:[#6]:1-[#8]-[H])-[H])-[H])-[H])-[H]'],"['InChI=1S/C12H9N3O4/c16-11-6-3-9(7-12(11)17)14-13-8-1-4-10(5-2-8)15(18)19/h1-7,16-17H/b14-13+']",['DGOZWUSVOBKXNR-BUHFOSPRSA-N']
3methoxy6ptolyl45dihydropyridazine_cation->neut,5.01,"3-methoxy-6-p-tolyl-4,5-dihydropyridazine",10.1016/j.theochem.2003.08.085,['[H]c1c([H])c(C([H])([H])[H])c([H])c([H])c1C1=NN=C(OC([H])([H])[H])C([H])([H])C1([H])[H]'],['[#8](-[#6]1=[#7]-[#7]=[#6](-[#6@@](-[#6@]-1(-[H])-[H])(-[H])-[H])-[#6]1:[#6](:[#6](:[#6](:[#6](:[#6]:1-[H])-[H])-[#6@@](-[H])(-[H])-[H])-[H])-[H])-[#6@@](-[H])(-[H])-[H]'],"['InChI=1S/C12H14N2O/c1-9-3-5-10(6-4-9)11-7-8-12(15-2)14-13-11/h3-6H,7-8H2,1-2H3']",['NHSQGKAFPWQOEB-UHFFFAOYSA-N']
3phenyl45dihydro1Hpyridazin6one_cation->neut,1.41,"3-phenyl-4,5-dihydro-1H-pyridazin-6-one",10.1016/j.theochem.2003.08.085,"['[H]c1c([H])c([H])c(C2=NN([H])C(=O)C([H])([H])C2([H])[H])c([H])c1[H]', '[H]OC1=NN=C(c2c([H])c([H])c([H])c([H])c2[H])C([H])([H])C1([H])[H]', '[H]c1c([H])c([H])c(C2=[N+]([H])N=C([O-])C([H])([H])C2([H])[H])c([H])c1[H]']","['[#8]=[#6]1-[#7](-[#7]=[#6](-[#6@@](-[#6@]-1(-[H])-[H])(-[H])-[H])-[#6]1:[#6](:[#6](:[#6](:[#6](:[#6]:1-[H])-[H])-[H])-[H])-[H])-[H]', '[#8](-[#6]1=[#7]-[#7]=[#6](-[#6@@](-[#6@]-1(-[H])-[H])(-[H])-[H])-[#6]1:[#6](:[#6](:[#6](:[#6](:[#6]:1-[H])-[H])-[H])-[H])-[H])-[H]', '[#8]-[#6]1=[#7]-[#7+](=[#6](-[#6@@](-[#6@]-1(-[H])-[H])(-[H])-[H])-[#6]1:[#6](:[#6](:[#6](:[#6](:[#6]:1-[H])-[H])-[H])-[H])-[H])-[H]']","['InChI=1S/C10H10N2O/c13-10-7-6-9(11-12-10)8-4-2-1-3-5-8/h1-5H,6-7H2,(H,12,13)']",['KSGYMLDMYPAMFV-UHFFFAOYSA-N']
159triazaciclododecane_cation->neut,12.2,"1,5,9-triazacyclododecane",10.1021/ja030236d,['[H]N1C([H])([H])C([H])([H])C([H])([H])N([H])C([H])([H])C([H])([H])C([H])([H])N([H])C([H])([H])C([H])([H])C1([H])[H]'],['[#7]1(-[#6@](-[#6@](-[#6@@](-[#7](-[#6@](-[#6@@](-[#6@@](-[#7](-[#6@](-[#6@@](-[#6@@]-1(-[H])-[H])(-[H])-[H])(-[H])-[H])-[H])(-[H])-[H])(-[H])-[H])(-[H])-[H])-[H])(-[H])-[H])(-[H])-[H])(-[H])-[H])-[H]'],"['InChI=1S/C9H21N3/c1-4-10-6-2-8-12-9-3-7-11-5-1/h10-12H,1-9H2']",['VQFZKDXSJZVGDA-UHFFFAOYSA-N']
159triazaciclododecane_2cation->cation,7.57,"1,5,9-triazacyclododecane",10.1021/ja030236d,['[H]N1C([H])([H])C([H])([H])C([H])([H])N([H])C([H])([H])C([H])([H])C([H])([H])N([H])C([H])([H])C([H])([H])C1([H])[H]'],['[#7]1(-[#6@](-[#6@](-[#6@@](-[#7](-[#6@](-[#6@@](-[#6@@](-[#7](-[#6@](-[#6@@](-[#6@@]-1(-[H])-[H])(-[H])-[H])(-[H])-[H])-[H])(-[H])-[H])(-[H])-[H])(-[H])-[H])-[H])(-[H])-[H])(-[H])-[H])(-[H])-[H])-[H]'],"['InChI=1S/C9H21N3/c1-4-10-6-2-8-12-9-3-7-11-5-1/h10-12H,1-9H2']",['VQFZKDXSJZVGDA-UHFFFAOYSA-N']
159triazaciclododecane_3cation->2cation,2.41,"1,5,9-triazacyclododecane",10.1021/ja030236d,['[H]N1C([H])([H])C([H])([H])C([H])([H])N([H])C([H])([H])C([H])([H])C([H])([H])N([H])C([H])([H])C([H])([H])C1([H])[H]'],['[#7]1(-[#6@](-[#6@](-[#6@@](-[#7](-[#6@](-[#6@@](-[#6@@](-[#7](-[#6@](-[#6@@](-[#6@@]-1(-[H])-[H])(-[H])-[H])(-[H])-[H])-[H])(-[H])-[H])(-[H])-[H])(-[H])-[H])-[H])(-[H])-[H])(-[H])-[H])(-[H])-[H])-[H]'],"['InChI=1S/C9H21N3/c1-4-10-6-2-8-12-9-3-7-11-5-1/h10-12H,1-9H2']",['VQFZKDXSJZVGDA-UHFFFAOYSA-N']