compn,pKa,correct name,reference,smiles,smarts,inchi,inchiKey
3mercaptoisoquinoline_neut->an,8.58,3-mercaptoisoquinoline,doi.org/10.1039/JR9590002384,"['[H]c1c([H])c([H])c2c([H])n([H])c(=S)c([H])c2c1[H]', '[H]Sc1nc([H])c2c([H])c([H])c([H])c([H])c2c1[H]']","['[#16]=[#6]1:[#7](:[#6](:[#6]2:[#6](:[#6]:1-[H]):[#6](:[#6](:[#6](:[#6]:2-[H])-[H])-[H])-[H])-[H])-[H]', '[#16](-[#6]1:[#7]:[#6](:[#6]2:[#6](:[#6]:1-[H]):[#6](:[#6](:[#6](:[#6]:2-[H])-[H])-[H])-[H])-[H])-[H]']","['InChI=1S/C9H7NS/c11-9-5-7-3-1-2-4-8(7)6-10-9/h1-6H,(H,10,11)']",['WRIZFUVYABPOLN-UHFFFAOYSA-N']
Smethyl3mercaptoisoquinoline_cation->neut,3.41,3-(Methylthio)isoquinoline,doi.org/10.1039/JR9590002384,['[H]c1c([H])c([H])c2c([H])c(SC([H])([H])[H])nc([H])c2c1[H]'],['[#16](-[#6]1:[#7]:[#6](:[#6]2:[#6](:[#6]:1-[H]):[#6](:[#6](:[#6](:[#6]:2-[H])-[H])-[H])-[H])-[H])-[#6@@](-[H])(-[H])-[H]'],"['InChI=1S/C10H9NS/c1-12-10-6-8-4-2-3-5-9(8)7-11-10/h2-7H,1H3']",['SNRLRUIFMJGALU-UHFFFAOYSA-N']
2methoxyquinoline_cation->neut,3.17,2-methoxyquinoline,doi.org/10.1039/JR9560001294,['[H]c1c([H])c([H])c2c([H])c([H])c(OC([H])([H])[H])nc2c1[H]'],['[#8](-[#6]1:[#7]:[#6]2:[#6](:[#6](:[#6]:1-[H])-[H]):[#6](:[#6](:[#6](:[#6]:2-[H])-[H])-[H])-[H])-[#6@](-[H])(-[H])-[H]'],"['InChI=1S/C10H9NO/c1-12-10-7-6-8-4-2-3-5-9(8)11-10/h2-7H,1H3']",['ZTQNUTNKGQGWCM-UHFFFAOYSA-N']
4methoxyquinoline_cation->neut,6.65,4-methoxyquinoline,doi.org/10.1039/JR9560001294,['[H]c1nc2c([H])c([H])c([H])c([H])c2c(OC([H])([H])[H])c1[H]'],['[#8](-[#6]1:[#6]2:[#6](:[#7]:[#6](:[#6]:1-[H])-[H]):[#6](:[#6](:[#6](:[#6]:2-[H])-[H])-[H])-[H])-[#6@](-[H])(-[H])-[H]'],"['InChI=1S/C10H9NO/c1-12-10-6-7-11-9-5-3-2-4-8(9)10/h2-7H,1H3']",['RWTCJCUERNMVEZ-UHFFFAOYSA-N']
acridone_cation->neut,-0.26,acridone,doi.org/10.1039/JR9560001294,"['[H]Oc1c2c([H])c([H])c([H])c([H])c2nc2c([H])c([H])c([H])c([H])c12', '[H]c1c([H])c([H])c2c(c1[H])c(=O)c1c([H])c([H])c([H])c([H])c1n2[H]']","['[#6]1(:[#6](:[#6]2:[#6](:[#6](:[#6]:1-[H])-[H]):[#7]:[#6]1:[#6](:[#6]:2-[#8]-[H]):[#6](-[H]):[#6](:[#6](:[#6]:1-[H])-[H])-[H])-[H])-[H]', '[#6]1(:[#6](:[#6]2:[#6](:[#6](:[#6]:1-[H])-[H]):[#7](:[#6]1:[#6](:[#6]:2=[#8]):[#6](-[H]):[#6](:[#6](:[#6]:1-[H])-[H])-[H])-[H])-[H])-[H]']","['InChI=1S/C13H9NO/c15-13-9-5-1-3-7-11(9)14-12-8-4-2-6-10(12)13/h1-8H,(H,14,15)']",['FZEYVTFCMJSGMP-UHFFFAOYSA-N']
2hydroxypyrazine_neut->an,8.23,2-hydroxypyrazine,doi.org/10.1039/JR9560001294,"['[H]c1nc([H])c(=O)n([H])c1[H]', '[H]c1nc([O-])c([H])[n+]([H])c1[H]', '[H]Oc1nc([H])c([H])nc1[H]']","['[#8]=[#6]1:[#7](:[#6](:[#6](:[#7]:[#6]:1-[H])-[H])-[H])-[H]', '[#8]-[#6]1:[#7]:[#6](:[#6](:[#7+](:[#6]:1-[H])-[H])-[H])-[H]', '[#8](-[#6]1:[#7]:[#6](:[#6](:[#7]:[#6]:1-[H])-[H])-[H])-[H]']","['InChI=1S/C4H4N2O/c7-4-3-5-1-2-6-4/h1-3H,(H,6,7)']",['HUTNOYOBQPAKIA-UHFFFAOYSA-N']
4hydroxypyridazine_cation->neut,1.07,4-hydroxypyridazine,doi.org/10.1039/JR9560001294,"['[H]c1nn([H])c([H])c([H])c1=O', '[H]Oc1c([H])nnc([H])c1[H]', '[H]c1n[n+]([H])c([H])c([O-])c1[H]']","['[#8]=[#6]1:[#6](:[#6](:[#7](:[#7]:[#6]:1-[H])-[H])-[H])-[H]', '[#8](-[#6]1:[#6](:[#6](:[#7]:[#7]:[#6]:1-[H])-[H])-[H])-[H]', '[#8]-[#6]1:[#6](:[#6](:[#7]:[#7+](:[#6]:1-[H])-[H])-[H])-[H]']","['InChI=1S/C4H4N2O/c7-4-1-2-5-6-3-4/h1-3H,(H,5,7)']",['VHVUTJZQFZBIRR-UHFFFAOYSA-N']
4hydroxypyridazine_neut->an,8.68,4-hydroxypyridazine,doi.org/10.1039/JR9560001294,"['[H]c1nn([H])c([H])c([H])c1=O', '[H]Oc1c([H])nnc([H])c1[H]', '[H]c1n[n+]([H])c([H])c([O-])c1[H]']","['[#8]=[#6]1:[#6](:[#6](:[#7](:[#7]:[#6]:1-[H])-[H])-[H])-[H]', '[#8](-[#6]1:[#6](:[#6](:[#7]:[#7]:[#6]:1-[H])-[H])-[H])-[H]', '[#8]-[#6]1:[#6](:[#6](:[#7]:[#7+](:[#6]:1-[H])-[H])-[H])-[H]']","['InChI=1S/C4H4N2O/c7-4-1-2-5-6-3-4/h1-3H,(H,5,7)']",['VHVUTJZQFZBIRR-UHFFFAOYSA-N']
3hydroxypyridazine_neut->an,10.46,3-hydroxypyridazine,doi.org/10.1039/JR9560001294,"['[H]Oc1nnc([H])c([H])c1[H]', '[H]c1c([O-])n[n+]([H])c([H])c1[H]', '[H]c1nn([H])c(=O)c([H])c1[H]']","['[#8](-[#6]1:[#7]:[#7]:[#6](:[#6](:[#6]:1-[H])-[H])-[H])-[H]', '[#8]-[#6]1:[#7]:[#7+](:[#6](:[#6](:[#6]:1-[H])-[H])-[H])-[H]', '[#8]=[#6]1:[#7](:[#7]:[#6](:[#6](:[#6]:1-[H])-[H])-[H])-[H]']","['InChI=1S/C4H4N2O/c7-4-2-1-3-5-6-4/h1-3H,(H,6,7)']",['AAILEWXSEQLMNI-UHFFFAOYSA-N']
4methoxypyrimidine_cation->neut,2.5,4-methoxypyrimidine,doi.org/10.1039/JR9560001294,['[H]c1nc([H])c([H])c(OC([H])([H])[H])n1'],['[#8](-[#6]1:[#7]:[#6](:[#7]:[#6](:[#6]:1-[H])-[H])-[H])-[#6@](-[H])(-[H])-[H]'],"['InChI=1S/C5H6N2O/c1-8-5-2-3-6-4-7-5/h2-4H,1H3']",['PENVYHXKYYCYML-UHFFFAOYSA-N']
1methyl2pirimidinone_cation->neut,2.5,1-methyl-2-pyrimidinone,doi.org/10.1039/JR9560001294,['[H]c1nc(=O)n(C([H])([H])[H])c([H])c1[H]'],['[#8]=[#6]1:[#7](:[#6](:[#6](:[#6](:[#7]:1)-[H])-[H])-[H])-[#6@](-[H])(-[H])-[H]'],"['InChI=1S/C5H6N2O/c1-7-4-2-3-6-5(7)8/h2-4H,1H3']",['LQKMCBPMBNUKSU-UHFFFAOYSA-N']
1methyl4pirimidinone_cation->neut,1.8,1-methylpyrimidin-4-one,doi.org/10.1039/JR9560001294,['[H]c1c([H])n(C([H])([H])[H])c([H])nc1=O'],['[#8]=[#6]1:[#7]:[#6](:[#7](:[#6](:[#6]:1-[H])-[H])-[#6@@](-[H])(-[H])-[H])-[H]'],"['InChI=1S/C5H6N2O/c1-7-3-2-5(8)6-4-7/h2-4H,1H3']",['NWLPRJINWFMRHH-UHFFFAOYSA-N']
4hydroxycinnoline_cation->neut,-0.35,4-hydroxycinnoline,doi.org/10.1039/JR9560001294,"['[H]c1c([H])c([H])c2c([O-])c([H])[n+]([H])nc2c1[H]', '[H]Oc1c([H])nnc2c([H])c([H])c([H])c([H])c12', '[H]c1c([H])c([H])c2c(c1[H])c(=O)c([H])nn2[H]']","['[#8]-[#6]1:[#6]2:[#6](:[#7]:[#7+](:[#6]:1-[H])-[H]):[#6](:[#6](:[#6](:[#6]:2-[H])-[H])-[H])-[H]', '[#8](-[#6]1:[#6]2:[#6](:[#7]:[#7]:[#6]:1-[H]):[#6](:[#6](:[#6](:[#6]:2-[H])-[H])-[H])-[H])-[H]', '[#8]=[#6]1:[#6]2:[#6](:[#7](:[#7]:[#6]:1-[H])-[H]):[#6](:[#6](:[#6](:[#6]:2-[H])-[H])-[H])-[H]']","['InChI=1S/C8H6N2O/c11-8-5-9-10-7-4-2-1-3-6(7)8/h1-5H,(H,10,11)']",['UFMBERDMCRCVSM-UHFFFAOYSA-N']
4hydroxycinnoline_neut->an,9.27,4-hydroxycinnoline,doi.org/10.1039/JR9560001294,"['[H]c1c([H])c([H])c2c([O-])c([H])[n+]([H])nc2c1[H]', '[H]Oc1c([H])nnc2c([H])c([H])c([H])c([H])c12', '[H]c1c([H])c([H])c2c(c1[H])c(=O)c([H])nn2[H]']","['[#8]-[#6]1:[#6]2:[#6](:[#7]:[#7+](:[#6]:1-[H])-[H]):[#6](:[#6](:[#6](:[#6]:2-[H])-[H])-[H])-[H]', '[#8](-[#6]1:[#6]2:[#6](:[#7]:[#7]:[#6]:1-[H]):[#6](:[#6](:[#6](:[#6]:2-[H])-[H])-[H])-[H])-[H]', '[#8]=[#6]1:[#6]2:[#6](:[#7](:[#7]:[#6]:1-[H])-[H]):[#6](:[#6](:[#6](:[#6]:2-[H])-[H])-[H])-[H]']","['InChI=1S/C8H6N2O/c11-8-5-9-10-7-4-2-1-3-6(7)8/h1-5H,(H,10,11)']",['UFMBERDMCRCVSM-UHFFFAOYSA-N']
3hydroxycinnoline_neut->an,8.64,3-hydroxycinnoline,doi.org/10.1039/JR9560001294,"['[H]Oc1nnc2c([H])c([H])c([H])c([H])c2c1[H]', '[H]c1c([H])c([H])c2c([H])c(=O)n([H])nc2c1[H]', '[H]c1c([H])c([H])c2c(c([H])c([O-])n[n+]2[H])c1[H]']","['[#7]1:[#7]:[#6](:[#6](:[#6]2:[#6]:1:[#6](:[#6](:[#6](:[#6]:2-[H])-[H])-[H])-[H])-[H])-[#8]-[H]', '[#7]1:[#7](:[#6](:[#6](:[#6]2:[#6]:1:[#6](:[#6](:[#6](:[#6]:2-[H])-[H])-[H])-[H])-[H])=[#8])-[H]', '[#7]1(:[#7]:[#6](:[#6](:[#6]2:[#6]:1:[#6](:[#6](:[#6](:[#6]:2-[H])-[H])-[H])-[H])-[H])-[#8-])-[H]']","['InChI=1S/C8H6N2O/c11-8-5-6-3-1-2-4-7(6)9-10-8/h1-5H,(H,10,11)']",['CXUGAWWYKSOLEL-UHFFFAOYSA-N']
5hydroxycinnoline_cation->neut,1.92,5-hydroxycinnoline,doi.org/10.1039/JR9560001294,"['[H]c1c([H])c([O-])c2c([H])c([H])[n+]([H])nc2c1[H]', '[H]Oc1c([H])c([H])c([H])c2nnc([H])c([H])c12', '[H]c1nn([H])c2c([H])c([H])c([H])c(=O)c-2c1[H]']","['[#7]1:[#7+](:[#6](:[#6](:[#6]2:[#6]:1:[#6](:[#6](:[#6](:[#6]:2-[#8-])-[H])-[H])-[H])-[H])-[H])-[H]', '[#7]1:[#7]:[#6](:[#6](:[#6]2:[#6]:1:[#6](:[#6](:[#6](:[#6]:2-[#8]-[H])-[H])-[H])-[H])-[H])-[H]', '[#7]1(:[#7]:[#6](:[#6](:[#6]2-[#6]:1:[#6](:[#6](:[#6](:[#6]:2=[#8])-[H])-[H])-[H])-[H])-[H])-[H]']","['InChI=1S/C8H6N2O/c11-8-3-1-2-7-6(8)4-5-9-10-7/h1-5,11H', 'InChI=1S/C8H6N2O/c11-8-3-1-2-7-6(8)4-5-9-10-7/h1-5,10H']","['ZZVUPNFZGYTAAN-UHFFFAOYSA-N', 'JJSOAEMPTHPDFP-UHFFFAOYSA-N']"
5hydroxycinnoline_neut->an,7.4,5-hydroxycinnoline,doi.org/10.1039/JR9560001294,"['[H]c1c([H])c([O-])c2c([H])c([H])[n+]([H])nc2c1[H]', '[H]Oc1c([H])c([H])c([H])c2nnc([H])c([H])c12', '[H]c1nn([H])c2c([H])c([H])c([H])c(=O)c-2c1[H]']","['[#7]1:[#7+](:[#6](:[#6](:[#6]2:[#6]:1:[#6](:[#6](:[#6](:[#6]:2-[#8-])-[H])-[H])-[H])-[H])-[H])-[H]', '[#7]1:[#7]:[#6](:[#6](:[#6]2:[#6]:1:[#6](:[#6](:[#6](:[#6]:2-[#8]-[H])-[H])-[H])-[H])-[H])-[H]', '[#7]1(:[#7]:[#6](:[#6](:[#6]2-[#6]:1:[#6](:[#6](:[#6](:[#6]:2=[#8])-[H])-[H])-[H])-[H])-[H])-[H]']","['InChI=1S/C8H6N2O/c11-8-3-1-2-7-6(8)4-5-9-10-7/h1-5,11H', 'InChI=1S/C8H6N2O/c11-8-3-1-2-7-6(8)4-5-9-10-7/h1-5,10H']","['ZZVUPNFZGYTAAN-UHFFFAOYSA-N', 'JJSOAEMPTHPDFP-UHFFFAOYSA-N']"
6hydroxycinnoline_cation->neut,3.65,6-hydroxycinnoline,doi.org/10.1039/JR9560001294,"['[H]Oc1c([H])c([H])c2nnc([H])c([H])c2c1[H]', '[H]c1c2nn([H])c([H])c([H])c-2c([H])c(=O)c1[H]', '[H]c1n[n+]([H])c2c([H])c([H])c([O-])c([H])c2c1[H]']","['[#7]1:[#7]:[#6](:[#6](:[#6]2:[#6]:1:[#6](:[#6](:[#6](:[#6]:2-[H])-[#8]-[H])-[H])-[H])-[H])-[H]', '[#7]1:[#7](:[#6](:[#6](:[#6]2-[#6]:1:[#6](:[#6](:[#6](:[#6]:2-[H])=[#8])-[H])-[H])-[H])-[H])-[H]', '[#7]1(:[#7]:[#6](:[#6](:[#6]2:[#6]:1:[#6](:[#6](:[#6](:[#6]:2-[H])-[#8-])-[H])-[H])-[H])-[H])-[H]']","['InChI=1S/C8H6N2O/c11-7-1-2-8-6(5-7)3-4-9-10-8/h1-5,11H', 'InChI=1S/C8H6N2O/c11-7-1-2-8-6(5-7)3-4-9-10-8/h1-5,9H']","['VITWLPFZOYHMOK-UHFFFAOYSA-N', 'HQAZYJDWGFUXLE-UHFFFAOYSA-N']"
6hydroxycinnoline_neut->an,7.52,6-hydroxycinnoline,doi.org/10.1039/JR9560001294,"['[H]Oc1c([H])c([H])c2nnc([H])c([H])c2c1[H]', '[H]c1c2nn([H])c([H])c([H])c-2c([H])c(=O)c1[H]', '[H]c1n[n+]([H])c2c([H])c([H])c([O-])c([H])c2c1[H]']","['[#7]1:[#7]:[#6](:[#6](:[#6]2:[#6]:1:[#6](:[#6](:[#6](:[#6]:2-[H])-[#8]-[H])-[H])-[H])-[H])-[H]', '[#7]1:[#7](:[#6](:[#6](:[#6]2-[#6]:1:[#6](:[#6](:[#6](:[#6]:2-[H])=[#8])-[H])-[H])-[H])-[H])-[H]', '[#7]1(:[#7]:[#6](:[#6](:[#6]2:[#6]:1:[#6](:[#6](:[#6](:[#6]:2-[H])-[#8-])-[H])-[H])-[H])-[H])-[H]']","['InChI=1S/C8H6N2O/c11-7-1-2-8-6(5-7)3-4-9-10-8/h1-5,11H', 'InChI=1S/C8H6N2O/c11-7-1-2-8-6(5-7)3-4-9-10-8/h1-5,9H']","['VITWLPFZOYHMOK-UHFFFAOYSA-N', 'HQAZYJDWGFUXLE-UHFFFAOYSA-N']"
7hydroxycinnoline_cation->neut,3.31,7-hydroxycinnoline,doi.org/10.1039/JR9560001294,"['[H]Oc1c([H])c([H])c2c([H])c([H])nnc2c1[H]', '[H]c1nn([H])c2c([H])c(=O)c([H])c([H])c-2c1[H]', '[H]c1c([O-])c([H])c2n[n+]([H])c([H])c([H])c2c1[H]']","['[#7]1:[#7]:[#6](:[#6](:[#6]2:[#6]:1:[#6](:[#6](:[#6](:[#6]:2-[H])-[H])-[#8]-[H])-[H])-[H])-[H]', '[#7]1(:[#7]:[#6](:[#6](:[#6]2-[#6]:1:[#6](:[#6](:[#6](:[#6]:2-[H])-[H])=[#8])-[H])-[H])-[H])-[H]', '[#7]1:[#7+](:[#6](:[#6](:[#6]2:[#6]:1:[#6](:[#6](:[#6](:[#6]:2-[H])-[H])-[#8-])-[H])-[H])-[H])-[H]']","['InChI=1S/C8H6N2O/c11-7-2-1-6-3-4-9-10-8(6)5-7/h1-5,11H', 'InChI=1S/C8H6N2O/c11-7-2-1-6-3-4-9-10-8(6)5-7/h1-5,10H']","['TVQZTIHYLLXSFD-UHFFFAOYSA-N', 'RBOINSYCRCXXDG-UHFFFAOYSA-N']"
7hydroxycinnoline_neut->an,7.56,7-hydroxycinnoline,doi.org/10.1039/JR9560001294,"['[H]Oc1c([H])c([H])c2c([H])c([H])nnc2c1[H]', '[H]c1nn([H])c2c([H])c(=O)c([H])c([H])c-2c1[H]', '[H]c1c([O-])c([H])c2n[n+]([H])c([H])c([H])c2c1[H]']","['[#7]1:[#7]:[#6](:[#6](:[#6]2:[#6]:1:[#6](:[#6](:[#6](:[#6]:2-[H])-[H])-[#8]-[H])-[H])-[H])-[H]', '[#7]1(:[#7]:[#6](:[#6](:[#6]2-[#6]:1:[#6](:[#6](:[#6](:[#6]:2-[H])-[H])=[#8])-[H])-[H])-[H])-[H]', '[#7]1:[#7+](:[#6](:[#6](:[#6]2:[#6]:1:[#6](:[#6](:[#6](:[#6]:2-[H])-[H])-[#8-])-[H])-[H])-[H])-[H]']","['InChI=1S/C8H6N2O/c11-7-2-1-6-3-4-9-10-8(6)5-7/h1-5,11H', 'InChI=1S/C8H6N2O/c11-7-2-1-6-3-4-9-10-8(6)5-7/h1-5,10H']","['TVQZTIHYLLXSFD-UHFFFAOYSA-N', 'RBOINSYCRCXXDG-UHFFFAOYSA-N']"
8hydroxycinnoline_cation->neut,2.74,8-hydroxy-cinnoline,doi.org/10.1039/JR9560001294,"['[H]c1n[n+]([H])c2c([O-])c([H])c([H])c([H])c2c1[H]', '[H]c1c([H])c([H])c(=O)c2nn([H])c([H])c([H])c1-2', '[H]Oc1c([H])c([H])c([H])c2c([H])c([H])nnc12']","['[#7]1(:[#7]:[#6](:[#6](:[#6]2:[#6]:1:[#6](:[#6](:[#6](:[#6]:2-[H])-[H])-[H])-[#8-])-[H])-[H])-[H]', '[#7]1:[#7](:[#6](:[#6](:[#6]2-[#6]:1:[#6](:[#6](:[#6](:[#6]:2-[H])-[H])-[H])=[#8])-[H])-[H])-[H]', '[#7]1:[#7]:[#6](:[#6](:[#6]2:[#6]:1:[#6](:[#6](:[#6](:[#6]:2-[H])-[H])-[H])-[#8]-[H])-[H])-[H]']","['InChI=1S/C8H6N2O/c11-7-3-1-2-6-4-5-9-10-8(6)7/h1-5,11H', 'InChI=1S/C8H6N2O/c11-7-3-1-2-6-4-5-9-10-8(6)7/h1-5,9H']","['UCYUOFIVFHOUTP-UHFFFAOYSA-N', 'FKKKJNQMJQKVHW-UHFFFAOYSA-N']"
8hydroxycinnoline_neut->an,8.2,8-hydroxy-cinnoline,doi.org/10.1039/JR9560001294,"['[H]c1n[n+]([H])c2c([O-])c([H])c([H])c([H])c2c1[H]', '[H]c1c([H])c([H])c(=O)c2nn([H])c([H])c([H])c1-2', '[H]Oc1c([H])c([H])c([H])c2c([H])c([H])nnc12']","['[#7]1(:[#7]:[#6](:[#6](:[#6]2:[#6]:1:[#6](:[#6](:[#6](:[#6]:2-[H])-[H])-[H])-[#8-])-[H])-[H])-[H]', '[#7]1:[#7](:[#6](:[#6](:[#6]2-[#6]:1:[#6](:[#6](:[#6](:[#6]:2-[H])-[H])-[H])=[#8])-[H])-[H])-[H]', '[#7]1:[#7]:[#6](:[#6](:[#6]2:[#6]:1:[#6](:[#6](:[#6](:[#6]:2-[H])-[H])-[H])-[#8]-[H])-[H])-[H]']","['InChI=1S/C8H6N2O/c11-7-3-1-2-6-4-5-9-10-8(6)7/h1-5,11H', 'InChI=1S/C8H6N2O/c11-7-3-1-2-6-4-5-9-10-8(6)7/h1-5,9H']","['UCYUOFIVFHOUTP-UHFFFAOYSA-N', 'FKKKJNQMJQKVHW-UHFFFAOYSA-N']"
2hydroxyquinoxaline_neut->an,9.08,2-hydroxyquinoxaline,doi.org/10.1039/JR9560001294,"['[H]c1c([H])c([H])c2c(nc([H])c(=O)n2[H])c1[H]', '[H]c1c([H])c([H])c2c(nc([O-])c([H])[n+]2[H])c1[H]', '[H]Oc1nc2c([H])c([H])c([H])c([H])c2nc1[H]']","['[#8]=[#6]1:[#7](:[#6]2:[#6](:[#7]:[#6]:1-[H]):[#6](:[#6](:[#6](:[#6]:2-[H])-[H])-[H])-[H])-[H]', '[#8]-[#6]1:[#7]:[#6]2:[#6](:[#7+](:[#6]:1-[H])-[H]):[#6](:[#6](:[#6](:[#6]:2-[H])-[H])-[H])-[H]', '[#8](-[#6]1:[#7]:[#6]2:[#6](:[#7]:[#6]:1-[H]):[#6](:[#6](:[#6](:[#6]:2-[H])-[H])-[H])-[H])-[H]']","['InChI=1S/C8H6N2O/c11-8-5-9-6-3-1-2-4-7(6)10-8/h1-5H,(H,10,11)']",['FFRYUAVNPBUEIC-UHFFFAOYSA-N']
5hydroxyquinoxaline_cation->neut,0.9,5-hydroxyquinoxaline,doi.org/10.1039/JR9560001294,"['[H]c1nc2c([H])c([H])c([H])c([O-])c2[n+]([H])c1[H]', '[H]c1nc2c(=O)c([H])c([H])c([H])c-2n([H])c1[H]', '[H]Oc1c([H])c([H])c([H])c2nc([H])c([H])nc12']","['[#8]-[#6]1:[#6]2:[#7+](:[#6](:[#6](:[#7]:[#6]:2:[#6](:[#6](:[#6]:1-[H])-[H])-[H])-[H])-[H])-[H]', '[#8]=[#6]1:[#6]2:[#7]:[#6](:[#6](:[#7](:[#6]-2:[#6](:[#6](:[#6]:1-[H])-[H])-[H])-[H])-[H])-[H]', '[#8](-[#6]1:[#6]2:[#7]:[#6](:[#6](:[#7]:[#6]:2:[#6](:[#6](:[#6]:1-[H])-[H])-[H])-[H])-[H])-[H]']","['InChI=1S/C8H6N2O/c11-7-3-1-2-6-8(7)10-5-4-9-6/h1-5,11H', 'InChI=1S/C8H6N2O/c11-7-3-1-2-6-8(7)10-5-4-9-6/h1-5,9H']","['ZUQDDQFXSNXEOD-UHFFFAOYSA-N', 'YDXPVVWMFFHSPT-UHFFFAOYSA-N']"
5hydroxyquinoxaline_neut->an,8.65,5-hydroxyquinoxaline,doi.org/10.1039/JR9560001294,"['[H]c1nc2c([H])c([H])c([H])c([O-])c2[n+]([H])c1[H]', '[H]c1nc2c(=O)c([H])c([H])c([H])c-2n([H])c1[H]', '[H]Oc1c([H])c([H])c([H])c2nc([H])c([H])nc12']","['[#8]-[#6]1:[#6]2:[#7+](:[#6](:[#6](:[#7]:[#6]:2:[#6](:[#6](:[#6]:1-[H])-[H])-[H])-[H])-[H])-[H]', '[#8]=[#6]1:[#6]2:[#7]:[#6](:[#6](:[#7](:[#6]-2:[#6](:[#6](:[#6]:1-[H])-[H])-[H])-[H])-[H])-[H]', '[#8](-[#6]1:[#6]2:[#7]:[#6](:[#6](:[#7]:[#6]:2:[#6](:[#6](:[#6]:1-[H])-[H])-[H])-[H])-[H])-[H]']","['InChI=1S/C8H6N2O/c11-7-3-1-2-6-8(7)10-5-4-9-6/h1-5,11H', 'InChI=1S/C8H6N2O/c11-7-3-1-2-6-8(7)10-5-4-9-6/h1-5,9H']","['ZUQDDQFXSNXEOD-UHFFFAOYSA-N', 'YDXPVVWMFFHSPT-UHFFFAOYSA-N']"
6hydroxyquinoxaline_cation->neut,1.4,6-hydroxyquinoxaline,doi.org/10.1039/JR9560001294,"['[H]Oc1c([H])c([H])c2nc([H])c([H])nc2c1[H]', '[H]c1nc2c([H])c([H])c(=O)c([H])c-2n([H])c1[H]', '[H]c1nc2c([H])c([O-])c([H])c([H])c2[n+]([H])c1[H]']","['[#8](-[#6]1:[#6](:[#6]2:[#7]:[#6](:[#6](:[#7]:[#6]:2:[#6](:[#6]:1-[H])-[H])-[H])-[H])-[H])-[H]', '[#8]=[#6]1:[#6](:[#6]2:[#7](:[#6](:[#6](:[#7]:[#6]-2:[#6](:[#6]:1-[H])-[H])-[H])-[H])-[H])-[H]', '[#8]-[#6]1:[#6](:[#6]2:[#7]:[#6](:[#6](:[#7+](:[#6]:2:[#6](:[#6]:1-[H])-[H])-[H])-[H])-[H])-[H]']","['InChI=1S/C8H6N2O/c11-6-1-2-7-8(5-6)10-4-3-9-7/h1-5,11H', 'InChI=1S/C8H6N2O/c11-6-1-2-7-8(5-6)10-4-3-9-7/h1-5,10H']","['RQPVXTQTNVVKEJ-UHFFFAOYSA-N', 'VEGOESHHZXUHMI-UHFFFAOYSA-N']"
6hydroxyquinoxaline_neut->an,7.92,6-hydroxyquinoxaline,doi.org/10.1039/JR9560001294,"['[H]Oc1c([H])c([H])c2nc([H])c([H])nc2c1[H]', '[H]c1nc2c([H])c([H])c(=O)c([H])c-2n([H])c1[H]', '[H]c1nc2c([H])c([O-])c([H])c([H])c2[n+]([H])c1[H]']","['[#8](-[#6]1:[#6](:[#6]2:[#7]:[#6](:[#6](:[#7]:[#6]:2:[#6](:[#6]:1-[H])-[H])-[H])-[H])-[H])-[H]', '[#8]=[#6]1:[#6](:[#6]2:[#7](:[#6](:[#6](:[#7]:[#6]-2:[#6](:[#6]:1-[H])-[H])-[H])-[H])-[H])-[H]', '[#8]-[#6]1:[#6](:[#6]2:[#7]:[#6](:[#6](:[#7+](:[#6]:2:[#6](:[#6]:1-[H])-[H])-[H])-[H])-[H])-[H]']","['InChI=1S/C8H6N2O/c11-6-1-2-7-8(5-6)10-4-3-9-7/h1-5,11H', 'InChI=1S/C8H6N2O/c11-6-1-2-7-8(5-6)10-4-3-9-7/h1-5,10H']","['RQPVXTQTNVVKEJ-UHFFFAOYSA-N', 'VEGOESHHZXUHMI-UHFFFAOYSA-N']"
1hydroxyphenazine_cation->neut,1.44,1-hydroxyphenazine,doi.org/10.1039/JR9560001294,"['[H]Oc1c([H])c([H])c([H])c2nc3c([H])c([H])c([H])c([H])c3nc12', '[H]c1c([H])c([H])c2c(nc3c([H])c([H])c([H])c([O-])c3[n+]2[H])c1[H]', '[H]c1c([H])c2n([H])c3c([H])c([H])c([H])c([H])c3nc-2c(=O)c1[H]']","['[#8](-[#6]1:[#6]2:[#7]:[#6]3:[#6](:[#7]:[#6]:2:[#6](:[#6](:[#6]:1-[H])-[H])-[H]):[#6](:[#6](:[#6](:[#6]:3-[H])-[H])-[H])-[H])-[H]', '[#8]-[#6]1:[#6]2:[#7+](:[#6]3:[#6](:[#7]:[#6]:2:[#6](:[#6](:[#6]:1-[H])-[H])-[H]):[#6](:[#6](:[#6](:[#6]:3-[H])-[H])-[H])-[H])-[H]', '[#8]=[#6]1:[#6]2:[#7]:[#6]3:[#6](:[#7](:[#6]-2:[#6](:[#6](:[#6]:1-[H])-[H])-[H])-[H]):[#6](:[#6](:[#6](:[#6]:3-[H])-[H])-[H])-[H]']","['InChI=1S/C12H8N2O/c15-11-7-3-6-10-12(11)14-9-5-2-1-4-8(9)13-10/h1-7,15H', 'InChI=1S/C12H8N2O/c15-11-7-3-6-10-12(11)14-9-5-2-1-4-8(9)13-10/h1-7,13H']","['SVRNCBGWUMMBQB-UHFFFAOYSA-N', 'KLJWTLFECGZQCL-UHFFFAOYSA-N']"
1hydroxyphenazine_neut->an,8.5,1-hydroxyphenazine,doi.org/10.1039/JR9560001294,"['[H]Oc1c([H])c([H])c([H])c2nc3c([H])c([H])c([H])c([H])c3nc12', '[H]c1c([H])c([H])c2c(nc3c([H])c([H])c([H])c([O-])c3[n+]2[H])c1[H]', '[H]c1c([H])c2n([H])c3c([H])c([H])c([H])c([H])c3nc-2c(=O)c1[H]']","['[#8](-[#6]1:[#6]2:[#7]:[#6]3:[#6](:[#7]:[#6]:2:[#6](:[#6](:[#6]:1-[H])-[H])-[H]):[#6](:[#6](:[#6](:[#6]:3-[H])-[H])-[H])-[H])-[H]', '[#8]-[#6]1:[#6]2:[#7+](:[#6]3:[#6](:[#7]:[#6]:2:[#6](:[#6](:[#6]:1-[H])-[H])-[H]):[#6](:[#6](:[#6](:[#6]:3-[H])-[H])-[H])-[H])-[H]', '[#8]=[#6]1:[#6]2:[#7]:[#6]3:[#6](:[#7](:[#6]-2:[#6](:[#6](:[#6]:1-[H])-[H])-[H])-[H]):[#6](:[#6](:[#6](:[#6]:3-[H])-[H])-[H])-[H]']","['InChI=1S/C12H8N2O/c15-11-7-3-6-10-12(11)14-9-5-2-1-4-8(9)13-10/h1-7,15H', 'InChI=1S/C12H8N2O/c15-11-7-3-6-10-12(11)14-9-5-2-1-4-8(9)13-10/h1-7,13H']","['SVRNCBGWUMMBQB-UHFFFAOYSA-N', 'KLJWTLFECGZQCL-UHFFFAOYSA-N']"
2hydroxyphenazine_cation->neut,2.6,2-hydroxyphenazine,doi.org/10.1039/JR9560001294,"['[H]c1c([H])c([H])c2c(nc3c([H])c([O-])c([H])c([H])c3[n+]2[H])c1[H]', '[H]c1c2nc3c([H])c([H])c([H])c([H])c3n([H])c-2c([H])c(=O)c1[H]', '[H]Oc1c([H])c([H])c2nc3c([H])c([H])c([H])c([H])c3nc2c1[H]']","['[#8]-[#6]1:[#6](:[#6]2:[#7]:[#6]3:[#6](:[#7+](:[#6]:2:[#6](:[#6]:1-[H])-[H])-[H]):[#6](:[#6](:[#6](:[#6]:3-[H])-[H])-[H])-[H])-[H]', '[#8]=[#6]1:[#6](:[#6]2:[#7](:[#6]3:[#6](:[#7]:[#6]-2:[#6](:[#6]:1-[H])-[H]):[#6](:[#6](:[#6](:[#6]:3-[H])-[H])-[H])-[H])-[H])-[H]', '[#8](-[#6]1:[#6](:[#6]2:[#7]:[#6]3:[#6](:[#7]:[#6]:2:[#6](:[#6]:1-[H])-[H]):[#6](:[#6](:[#6](:[#6]:3-[H])-[H])-[H])-[H])-[H])-[H]']","['InChI=1S/C12H8N2O/c15-8-5-6-11-12(7-8)14-10-4-2-1-3-9(10)13-11/h1-7,15H', 'InChI=1S/C12H8N2O/c15-8-5-6-11-12(7-8)14-10-4-2-1-3-9(10)13-11/h1-7,14H']","['RETSEGNZNUBJRB-UHFFFAOYSA-N', 'AZHUGLQVXUMICS-UHFFFAOYSA-N']"
2hydroxyphenazine_neut->an,7.5,2-hydroxyphenazine,doi.org/10.1039/JR9560001294,"['[H]c1c([H])c([H])c2c(nc3c([H])c([O-])c([H])c([H])c3[n+]2[H])c1[H]', '[H]c1c2nc3c([H])c([H])c([H])c([H])c3n([H])c-2c([H])c(=O)c1[H]', '[H]Oc1c([H])c([H])c2nc3c([H])c([H])c([H])c([H])c3nc2c1[H]']","['[#8]-[#6]1:[#6](:[#6]2:[#7]:[#6]3:[#6](:[#7+](:[#6]:2:[#6](:[#6]:1-[H])-[H])-[H]):[#6](:[#6](:[#6](:[#6]:3-[H])-[H])-[H])-[H])-[H]', '[#8]=[#6]1:[#6](:[#6]2:[#7](:[#6]3:[#6](:[#7]:[#6]-2:[#6](:[#6]:1-[H])-[H]):[#6](:[#6](:[#6](:[#6]:3-[H])-[H])-[H])-[H])-[H])-[H]', '[#8](-[#6]1:[#6](:[#6]2:[#7]:[#6]3:[#6](:[#7]:[#6]:2:[#6](:[#6]:1-[H])-[H]):[#6](:[#6](:[#6](:[#6]:3-[H])-[H])-[H])-[H])-[H])-[H]']","['InChI=1S/C12H8N2O/c15-8-5-6-11-12(7-8)14-10-4-2-1-3-9(10)13-11/h1-7,15H', 'InChI=1S/C12H8N2O/c15-8-5-6-11-12(7-8)14-10-4-2-1-3-9(10)13-11/h1-7,14H']","['RETSEGNZNUBJRB-UHFFFAOYSA-N', 'AZHUGLQVXUMICS-UHFFFAOYSA-N']"