compn,pKa,correct name,reference,smiles,smarts,inchi,inchiKey
glycyltyrosine_an->2an,10.49,glycyltyrosine,Lange's handbook of chemistry,['[H]Oc1c([H])c([H])c(C([H])([H])[C@@]([H])(C(=O)[O-])N([H])C(=O)C([H])([H])[N+]([H])([H])[H])c([H])c1[H]'],['[#8]=[#6](-[#8-])-[#6@@](-[#7](-[#6](=[#8])-[#6@](-[#7@+](-[H])(-[H])-[H])(-[H])-[H])-[H])(-[#6@@](-[#6]1:[#6](:[#6](:[#6](-[#8]-[H]):[#6](:[#6]:1-[H])-[H])-[H])-[H])(-[H])-[H])-[H]'],"['InChI=1S/C11H14N2O4/c12-6-10(15)13-9(11(16)17)5-7-1-3-8(14)4-2-7/h1-4,9,14H,5-6,12H2,(H,13,15)(H,16,17)/t9-/m0/s1']",['XBGGUPMXALFZOT-VIFPVBQESA-N']
glycylvaline_cation->neut,3.15,glycyl-valine,Lange's handbook of chemistry,['[H]N(C(=O)C([H])([H])[N+]([H])([H])[H])[C@@]([H])(C(=O)[O-])C([H])(C([H])([H])[H])C([H])([H])[H]'],['[#8]=[#6](-[#8-])-[#6@](-[#7](-[#6](=[#8])-[#6@](-[#7@@+](-[H])(-[H])-[H])(-[H])-[H])-[H])(-[#6@](-[#6@](-[H])(-[H])-[H])(-[#6@@](-[H])(-[H])-[H])-[H])-[H]'],"['InChI=1S/C7H14N2O3/c1-4(2)6(7(11)12)9-5(10)3-8/h4,6H,3,8H2,1-2H3,(H,9,10)(H,11,12)/t6-/m1/s1']",['STKYPAFSDFAEPH-ZCFIWIBFSA-N']
glycylvaline_neut->an,8.18,glycyl-valine,Lange's handbook of chemistry,['[H]N(C(=O)C([H])([H])[N+]([H])([H])[H])[C@@]([H])(C(=O)[O-])C([H])(C([H])([H])[H])C([H])([H])[H]'],['[#8]=[#6](-[#8-])-[#6@](-[#7](-[#6](=[#8])-[#6@](-[#7@@+](-[H])(-[H])-[H])(-[H])-[H])-[H])(-[#6@](-[#6@](-[H])(-[H])-[H])(-[#6@@](-[H])(-[H])-[H])-[H])-[H]'],"['InChI=1S/C7H14N2O3/c1-4(2)6(7(11)12)9-5(10)3-8/h4,6H,3,8H2,1-2H3,(H,9,10)(H,11,12)/t6-/m1/s1']",['STKYPAFSDFAEPH-ZCFIWIBFSA-N']
glycine_cation->neut,2.34,glycine,Lange's handbook of chemistry,['[H]C([H])(C(=O)[O-])[N+]([H])([H])[H]'],['[H]-[#7@@](-[#6@@](-[#6](=[#8])-[#8-])(-[H])-[H])(-[H])-[H]'],"['InChI=1S/C2H5NO2/c3-1-2(4)5/h1,3H2,(H,4,5)']",['DHMQDGOQFOQNFH-UHFFFAOYSA-N']
glycine_neut->an,9.6,glycine,Lange's handbook of chemistry,['[H]C([H])(C(=O)[O-])[N+]([H])([H])[H]'],['[H]-[#7@@](-[#6@@](-[#6](=[#8])-[#8-])(-[H])-[H])(-[H])-[H]'],"['InChI=1S/C2H5NO2/c3-1-2(4)5/h1,3H2,(H,4,5)']",['DHMQDGOQFOQNFH-UHFFFAOYSA-N']
glycineamide_cation->neut,8.03,glycineamide,Lange's handbook of chemistry,['[H]N([H])C(=O)C([H])([H])N([H])[H]'],['[#8]=[#6](-[#7](-[H])-[H])-[#6@](-[#7](-[H])-[H])(-[H])-[H]'],"['InChI=1S/C2H6N2O/c3-1-2(4)5/h1,3H2,(H2,4,5)']",['BEBCJVAWIBVWNZ-UHFFFAOYSA-N']
glycinemethylester_cation->neut,7.59,glycine methylester,Lange's handbook of chemistry,['[H]N([H])C([H])([H])C(=O)OC([H])([H])[H]'],['[#8]=[#6](-[#6@](-[H])(-[H])-[#7](-[H])-[H])-[#8]-[#6@@](-[H])(-[H])-[H]'],"['InChI=1S/C3H7NO2/c1-6-3(5)2-4/h2,4H2,1H3']",['KQSSATDQUYCRGS-UHFFFAOYSA-N']
glycinehydroxamic_cation->neut,7.1,glycinehydroxamic acid,Lange's handbook of chemistry,['[H]ON([H])C(=O)C([H])([H])N([H])[H]'],['[#8]=[#6](-[#7](-[#8]-[H])-[H])-[#6@@](-[#7](-[H])-[H])(-[H])-[H]'],"['InChI=1S/C2H6N2O2/c3-1-2(5)4-6/h6H,1,3H2,(H,4,5)']",['VDBCTDQYMZSQFQ-UHFFFAOYSA-N']
glycinehydroxamic_neut->an,9.1,glycinehydroxamic acid,Lange's handbook of chemistry,['[H]ON([H])C(=O)C([H])([H])N([H])[H]'],['[#8]=[#6](-[#7](-[#8]-[H])-[H])-[#6@@](-[#7](-[H])-[H])(-[H])-[H]'],"['InChI=1S/C2H6N2O2/c3-1-2(5)4-6/h6H,1,3H2,(H,4,5)']",['VDBCTDQYMZSQFQ-UHFFFAOYSA-N']
gtrifluoromethylcrotonic_neut->an,3.36,"4,4,4-trifluorocrotonic acid","G. KORTUM, W. VOGEL and K. ANDRUSSOW, DISSOCIATION CONSTANTS OF ORGANIC ACIDS IN AQUEOUS SOLUTION ",['[H]OC(=O)/C([H])=C(\\[H])C(F)(F)F'],['[#6](=[#6](\\[#6](=[#8])-[#8]-[H])-[H])(\\[H])-[#6@@](-[#9])(-[#9])-[#9]'],"['InChI=1S/C4H3F3O2/c5-4(6,7)2-1-3(8)9/h1-2H,(H,8,9)/b2-1+']",['QZBAYURFHCTXOJ-OWOJBTEDSA-N']
guanidine_cation->neut,13.6,guanidine,10.1002/jcc.23068,['[H]N=C(N([H])[H])N([H])[H]'],['[#6](=[#7]-[H])(-[#7](-[H])-[H])-[#7](-[H])-[H]'],"['InChI=1S/CH5N3/c2-1(3)4/h(H5,2,3,4)']",['ZRALSGWEFCBTJO-UHFFFAOYSA-N']
guanidineacetic_cation->neut,2.81,guanidineacetic acid,Lange's handbook of chemistry,['[H]N([H])C(N([H])C([H])([H])C(=O)[O-])=[N+]([H])[H]'],['[#8]=[#6](-[#8-])-[#6@@](-[#7](-[#6](-[#7](-[H])-[H])=[#7+](-[H])-[H])-[H])(-[H])-[H]'],"['InChI=1S/C3H7N3O2/c4-3(5)6-1-2(7)8/h1H2,(H,7,8)(H4,4,5,6)']",['BPMFZUMJYQTVII-UHFFFAOYSA-N']
guanine_an->2an,12.3,guanine,Lange's handbook of chemistry,"['[H]/N=c1\\n([H])c2nc([H])nc-2c(O[H])n1[H]', '[H]/N=c1\\nc2nc([H])n([H])c2c(O[H])n1[H]', '[H]Oc1c2nc([H])nc-2nc(N([H])[H])n1[H]', '[H]/N=c1\\nc(O[H])c2nc([H])n([H])c2n1[H]', '[H]c1nc2c(=O)n([H])c(N([H])[H])nc2n1[H]', '[H]/N=c1\\n([H])c(=O)c2c(nc([H])n2[H])n1[H]', '[H]N([H])c1nc2[n+]([H])[c-][n+]([H])c-2c([O-])n1[H]', '[H]/N=c1\\nc2c(nc([H])n2[H])c(O[H])n1[H]', '[H]/N=c1\\nc2c(c([O-])n1[H])[n+]([H])c([H])n2[H]', '[H]c1nc2c([O-])nc([N+]([H])([H])[H])nc2n1[H]', '[H]c1n([H])c2nc(N([H])[H])nc([O-])c2[n+]1[H]', '[H]c1nc2c(=O)nc(N([H])[H])n([H])c2n1[H]', '[H]c1nc2nc([N+]([H])([H])[H])nc([O-])c2n1[H]', '[H]c1nc2nc(N([H])[H])n([H])c(=O)c2n1[H]', '[H]Oc1nc(N([H])[H])nc2nc([H])n([H])c12', '[H]c1nc2c([O-])n([H])c(N([H])[H])[n+]([H])c-2n1', '[H]c1nc2c(c(=O)nc(N([H])[H])n2[H])n1[H]', '[H]Oc1nc(N([H])[H])nc2c1nc([H])n2[H]', '[H]/N=c1\\nc([O-])c2c(n([H])c([H])[n+]2[H])n1[H]', '[H]/N=c1\\n([H])c(=O)c2nc([H])n([H])c2n1[H]', '[H]Oc1nc(N([H])[H])n([H])c2nc([H])nc1-2']","['[#7]1:[#6](:[#7]:[#6]2:[#6](-[#8]-[H]):[#7](:[#6](=[#7]/[H]):[#7](:[#6]:1-2)-[H])-[H])-[H]', '[#7]1:[#6](:[#7](:[#6]2:[#6](-[#8]-[H]):[#7](:[#6](=[#7]/[H]):[#7]:[#6]:1:2)-[H])-[H])-[H]', '[#7]1:[#6](:[#7]:[#6]2:[#6](-[#8]-[H]):[#7](:[#6](-[#7](-[H])-[H]):[#7]:[#6]:1-2)-[H])-[H]', '[#7]1(:[#6](:[#7]:[#6]2:[#6](-[#8]-[H]):[#7]:[#6](=[#7]\\[H]):[#7](:[#6]:1:2)-[H])-[H])-[H]', '[#7]1(:[#6](:[#7]:[#6]2:[#6](=[#8]):[#7](:[#6](-[#7](-[H])-[H]):[#7]:[#6]:1:2)-[H])-[H])-[H]', '[#7]1:[#6](:[#7](:[#6]2:[#6](=[#8]):[#7](:[#6](=[#7]\\[H]):[#7](:[#6]:1:2)-[H])-[H])-[H])-[H]', '[#7]1(:[#6-]:[#7+](:[#6]2:[#6](-[#8-]):[#7](:[#6](-[#7](-[H])-[H]):[#7]:[#6]:1-2)-[H])-[H])-[H]', '[#7]1(:[#6](:[#7]:[#6]2:[#6](-[#8]-[H]):[#7](:[#6](=[#7]/[H]):[#7]:[#6]:1:2)-[H])-[H])-[H]', '[#7]1(:[#6](:[#7+](:[#6]2:[#6](-[#8-]):[#7](:[#6](=[#7]/[H]):[#7]:[#6]:1:2)-[H])-[H])-[H])-[H]', '[#7]1(:[#6](:[#7]:[#6]2:[#6](-[#8-]):[#7]:[#6](-[#7@@+](-[H])(-[H])-[H]):[#7]:[#6]:1:2)-[H])-[H]', '[#7]1(:[#6](:[#7+](:[#6]2:[#6](-[#8-]):[#7]:[#6](-[#7](-[H])-[H]):[#7]:[#6]:1:2)-[H])-[H])-[H]', '[#7]1(:[#6](:[#7]:[#6]2:[#6](=[#8]):[#7]:[#6](-[#7](-[H])-[H]):[#7](:[#6]:1:2)-[H])-[H])-[H]', '[#7]1:[#6](:[#7](:[#6]2:[#6](-[#8-]):[#7]:[#6](-[#7@+](-[H])(-[H])-[H]):[#7]:[#6]:1:2)-[H])-[H]', '[#7]1:[#6](:[#7](:[#6]2:[#6](=[#8]):[#7](:[#6](-[#7](-[H])-[H]):[#7]:[#6]:1:2)-[H])-[H])-[H]', '[#7]1:[#6](:[#7](:[#6]2:[#6](-[#8]-[H]):[#7]:[#6](-[#7](-[H])-[H]):[#7]:[#6]:1:2)-[H])-[H]', '[#7]1:[#6](:[#7]:[#6]2:[#6](-[#8-]):[#7](:[#6](-[#7](-[H])-[H]):[#7+](:[#6]:1-2)-[H])-[H])-[H]', '[#7]1:[#6](:[#7](:[#6]2:[#6](=[#8]):[#7]:[#6](-[#7](-[H])-[H]):[#7](:[#6]:1:2)-[H])-[H])-[H]', '[#7]1(:[#6](:[#7]:[#6]2:[#6](-[#8]-[H]):[#7]:[#6](-[#7](-[H])-[H]):[#7]:[#6]:1:2)-[H])-[H]', '[#7]1(:[#6](:[#7+](:[#6]2:[#6](-[#8-]):[#7]:[#6](=[#7]\\[H]):[#7](:[#6]:1:2)-[H])-[H])-[H])-[H]', '[#7]1(:[#6](:[#7]:[#6]2:[#6](=[#8]):[#7](:[#6](=[#7]\\[H]):[#7](:[#6]:1:2)-[H])-[H])-[H])-[H]', '[#7]1:[#6](:[#7]:[#6]2:[#6](-[#8]-[H]):[#7]:[#6](-[#7](-[H])-[H]):[#7](:[#6]:1-2)-[H])-[H]']","['InChI=1S/C5H5N5O/c6-5-9-3-2(4(11)10-5)7-1-8-3/h1H,(H4,6,7,8,9,10,11)', 'InChI=1S/C5H5N5O/c6-5-9-3-2(4(11)10-5)7-1-8-3/h7-8H,(H3-,6,9,10,11)']","['UYTPUPDQBNUYGX-UHFFFAOYSA-N', 'DMRXHFZPKNFTDR-UHFFFAOYSA-N']"
harmine_cation->neut,7.45,harmine,https://molpharm.aspetjournals.org/content/23/3/614,['[H]c1nc(C([H])([H])[H])c2c(c1[H])c1c([H])c([H])c(OC([H])([H])[H])c([H])c1n2[H]'],['[#8](-[#6]1:[#6](:[#6]2:[#7](:[#6]3:[#6](:[#6]:2:[#6](:[#6]:1-[H])-[H]):[#6](:[#6](:[#7]:[#6]:3-[#6@@](-[H])(-[H])-[H])-[H])-[H])-[H])-[H])-[#6@](-[H])(-[H])-[H]'],"['InChI=1S/C13H12N2O/c1-8-13-11(5-6-14-8)10-4-3-9(16-2)7-12(10)15-13/h3-7,15H,1-2H3']",['BXNJHAXVSOCGBA-UHFFFAOYSA-N']
heroin_cation->neut,7.6,heroin,Lange's handbook of chemistry,['[H]C1=C([H])[C@]([H])(OC(=O)C([H])([H])[H])[C@]2([H])Oc3c(OC(=O)C([H])([H])[H])c([H])c([H])c4c3[C@@]23C([H])([H])C([H])([H])N(C([H])([H])[H])[C@]([H])(C4([H])[H])[C@]13[H]'],['[#8]1-[#6@@]2(-[#6@]34-[#6@](-[#6@](-[#7](-[#6@](-[#6@@]-3(-[H])-[H])(-[H])-[H])-[#6@](-[H])(-[H])-[H])(-[#6@](-[#6]3:[#6]-4:[#6]-1:[#6](-[#8]-[#6](=[#8])-[#6@](-[H])(-[H])-[H]):[#6](:[#6]:3-[H])-[H])(-[H])-[H])-[H])(-[#6](=[#6](-[#6@@]-2(-[#8]-[#6](=[#8])-[#6@](-[H])(-[H])-[H])-[H])-[H])-[H])-[H])-[H]'],"['InChI=1S/C21H23NO5/c1-11(23)25-16-6-4-13-10-15-14-5-7-17(26-12(2)24)20-21(14,8-9-22(15)3)18(13)19(16)27-20/h4-7,14-15,17,20H,8-10H2,1-3H3/t14-,15+,17-,20-,21-/m0/s1']",['GVGLGOZIDCSQPN-PVHGPHFFSA-N']
hexafluoro2propanol_neut->an,9.42,hexafluoro-2-propanol,Lange's handbook of chemistry,['[H]OC([H])(C(F)(F)F)C(F)(F)F'],['[#9]-[#6@](-[#9])(-[#9])-[#6@](-[#8]-[H])(-[#6@](-[#9])(-[#9])-[#9])-[H]'],"['InChI=1S/C3H2F6O/c4-2(5,6)1(10)3(7,8)9/h1,10H']",['BYEAHWXPCBROCE-UHFFFAOYSA-N']
hippuric_neut->an,3.65,hippuric acid,Lange's handbook of chemistry,['[H]OC(=O)C([H])([H])N([H])C(=O)c1c([H])c([H])c([H])c([H])c1[H]'],['[#8]=[#6](-[#7](-[#6@](-[#6](-[#8]-[H])=[#8])(-[H])-[H])-[H])-[#6]1:[#6](:[#6](:[#6](:[#6](:[#6]:1-[H])-[H])-[H])-[H])-[H]'],"['InChI=1S/C9H9NO3/c11-8(12)6-10-9(13)7-4-2-1-3-5-7/h1-5H,6H2,(H,10,13)(H,11,12)']",['QIAFMBKCNZACKA-UHFFFAOYSA-N']
histidine_2cation->cation,1.82,histidine,Lange's handbook of chemistry,"['[H]c1nc([H])n([H])c1C([H])([H])[C@@]([H])(C(=O)[O-])[N+]([H])([H])[H]', '[H]c1nc(C([H])([H])[C@@]([H])(C(=O)[O-])[N+]([H])([H])[H])c([H])n1[H]']","['[H]-[#7@](-[H])(-[H])-[#6@](-[#6@@](-[#6]1:[#6](:[#7]:[#6](:[#7]:1-[H])-[H])-[H])(-[H])-[H])(-[H])-[#6](=[#8])-[#8-]', '[H]-[#7@@](-[H])(-[H])-[#6@@](-[H])(-[#6@@](-[#6]1:[#6](:[#7](:[#6](:[#7]:1)-[H])-[H])-[H])(-[H])-[H])-[#6](=[#8])-[#8-]']","['InChI=1S/C6H9N3O2/c7-5(6(10)11)1-4-2-8-3-9-4/h2-3,5H,1,7H2,(H,8,9)(H,10,11)/t5-/m0/s1']",['HNDVDQJCIGZPNO-YFKPBYRVSA-N']
histidine_cation->neut,6,histidine,Lange's handbook of chemistry,"['[H]c1nc([H])n([H])c1C([H])([H])[C@@]([H])(C(=O)[O-])[N+]([H])([H])[H]', '[H]c1nc(C([H])([H])[C@@]([H])(C(=O)[O-])[N+]([H])([H])[H])c([H])n1[H]']","['[H]-[#7@](-[H])(-[H])-[#6@](-[#6@@](-[#6]1:[#6](:[#7]:[#6](:[#7]:1-[H])-[H])-[H])(-[H])-[H])(-[H])-[#6](=[#8])-[#8-]', '[H]-[#7@@](-[H])(-[H])-[#6@@](-[H])(-[#6@@](-[#6]1:[#6](:[#7](:[#6](:[#7]:1)-[H])-[H])-[H])(-[H])-[H])-[#6](=[#8])-[#8-]']","['InChI=1S/C6H9N3O2/c7-5(6(10)11)1-4-2-8-3-9-4/h2-3,5H,1,7H2,(H,8,9)(H,10,11)/t5-/m0/s1']",['HNDVDQJCIGZPNO-YFKPBYRVSA-N']
histidine_neut->an,9.17,histidine,Lange's handbook of chemistry,"['[H]c1nc([H])n([H])c1C([H])([H])[C@@]([H])(C(=O)[O-])[N+]([H])([H])[H]', '[H]c1nc(C([H])([H])[C@@]([H])(C(=O)[O-])[N+]([H])([H])[H])c([H])n1[H]']","['[H]-[#7@](-[H])(-[H])-[#6@](-[#6@@](-[#6]1:[#6](:[#7]:[#6](:[#7]:1-[H])-[H])-[H])(-[H])-[H])(-[H])-[#6](=[#8])-[#8-]', '[H]-[#7@@](-[H])(-[H])-[#6@@](-[H])(-[#6@@](-[#6]1:[#6](:[#7](:[#6](:[#7]:1)-[H])-[H])-[H])(-[H])-[H])-[#6](=[#8])-[#8-]']","['InChI=1S/C6H9N3O2/c7-5(6(10)11)1-4-2-8-3-9-4/h2-3,5H,1,7H2,(H,8,9)(H,10,11)/t5-/m0/s1']",['HNDVDQJCIGZPNO-YFKPBYRVSA-N']
homocysteine_an->2an,10.86,homocysteine,Lange's handbook of chemistry,['[H]SC([H])([H])C([H])([H])[C@@]([H])(C(=O)[O-])[N+]([H])([H])[H]'],['[H]-[#7@@](-[H])(-[H])-[#6@](-[#6](=[#8])-[#8-])(-[#6@](-[#6@@](-[H])(-[H])-[#16]-[H])(-[H])-[H])-[H]'],"['InChI=1S/C4H9NO2S/c5-3(1-2-8)4(6)7/h3,8H,1-2,5H2,(H,6,7)/t3-/m0/s1']",['FFFHZYDWPBMWHY-VKHMYHEASA-N']
homocysteine_cation->neut,2.22,homocysteine,Lange's handbook of chemistry,['[H]SC([H])([H])C([H])([H])[C@@]([H])(C(=O)[O-])[N+]([H])([H])[H]'],['[H]-[#7@@](-[H])(-[H])-[#6@](-[#6](=[#8])-[#8-])(-[#6@](-[#6@@](-[H])(-[H])-[#16]-[H])(-[H])-[H])-[H]'],"['InChI=1S/C4H9NO2S/c5-3(1-2-8)4(6)7/h3,8H,1-2,5H2,(H,6,7)/t3-/m0/s1']",['FFFHZYDWPBMWHY-VKHMYHEASA-N']
homocysteine_neut->an,8.87,homocysteine,Lange's handbook of chemistry,['[H]SC([H])([H])C([H])([H])[C@@]([H])(C(=O)[O-])[N+]([H])([H])[H]'],['[H]-[#7@@](-[H])(-[H])-[#6@](-[#6](=[#8])-[#8-])(-[#6@](-[#6@@](-[H])(-[H])-[#16]-[H])(-[H])-[H])-[H]'],"['InChI=1S/C4H9NO2S/c5-3(1-2-8)4(6)7/h3,8H,1-2,5H2,(H,6,7)/t3-/m0/s1']",['FFFHZYDWPBMWHY-VKHMYHEASA-N']
homogentisic_neut->an,4.4,homogentistic acid,http://www.zirchrom.com/organic.htm,['[H]OC(=O)C([H])([H])c1c([H])c(O[H])c([H])c([H])c1O[H]'],['[#6]1(:[#6](:[#6](:[#6](:[#6](:[#6]:1-[H])-[#8]-[H])-[H])-[#6@](-[H])(-[H])-[#6](=[#8])-[#8]-[H])-[#8]-[H])-[H]'],"['InChI=1S/C8H8O4/c9-6-1-2-7(10)5(3-6)4-8(11)12/h1-3,9-10H,4H2,(H,11,12)']",['IGMNYECMUMZDDF-UHFFFAOYSA-N']
homoserine_cation->neut,2.71,homoserine,http://www.zirchrom.com/organic.htm,['[H]OC([H])([H])C([H])([H])[C@@]([H])(C(=O)[O-])[N+]([H])([H])[H]'],['[H]-[#7@@](-[H])(-[H])-[#6@](-[#6](=[#8])-[#8-])(-[#6@](-[#6@](-[H])(-[H])-[#8]-[H])(-[H])-[H])-[H]'],"['InChI=1S/C4H9NO3/c5-3(1-2-6)4(7)8/h3,6H,1-2,5H2,(H,7,8)/t3-/m0/s1']",['UKAUYVFTDYCKQA-VKHMYHEASA-N']
homoserine_neut->an,9.72,homoserine,http://www.zirchrom.com/organic.htm,['[H]OC([H])([H])C([H])([H])[C@@]([H])(C(=O)[O-])[N+]([H])([H])[H]'],['[H]-[#7@@](-[H])(-[H])-[#6@](-[#6](=[#8])-[#8-])(-[#6@](-[#6@](-[H])(-[H])-[#8]-[H])(-[H])-[H])-[H]'],"['InChI=1S/C4H9NO3/c5-3(1-2-6)4(7)8/h3,6H,1-2,5H2,(H,7,8)/t3-/m0/s1']",['UKAUYVFTDYCKQA-VKHMYHEASA-N']
hydantoin_neut->an,9.12,hydantoin,Lange's handbook of chemistry,['[H]N1C(=O)N([H])C([H])([H])C1=O'],['[#6]1(-[#7](-[#6](=[#8])-[#6@](-[#7]-1-[H])(-[H])-[H])-[H])=[#8]'],"['InChI=1S/C3H4N2O2/c6-2-1-4-3(7)5-2/h1H2,(H2,4,5,6,7)']",['WJRBRSLFGCUECM-UHFFFAOYSA-N']
hypoxanthine_cation->neut,1.19,hypoxanthine,10.1007/s00894-018-3892-4,"['[H]Oc1nc([H])n([H])c2nc([H])nc1-2', '[H]c1nc2c([O-])n([H])c([H])[n+]([H])c-2n1', '[H]c1nc([O-])c2c(n1)n([H])c([H])[n+]2[H]', '[H]c1nc2c(nc([H])n2[H])c(=O)n1[H]', '[H]Oc1nc([H])nc2c1nc([H])n2[H]', '[H]Oc1nc([H])nc2nc([H])n([H])c12', '[H]c1nc2[n+]([H])[c-][n+]([H])c-2c([O-])n1[H]', '[H]c1nc(=O)c2c(nc([H])n2[H])n1[H]', '[H]c1nc2nc([H])n([H])c2c(=O)n1[H]', '[H]c1nc(=O)c2nc([H])n([H])c2n1[H]', '[H]Oc1c2nc([H])nc-2nc([H])n1[H]']","['[#7]1:[#6](:[#7]:[#6]2:[#6](-[#8]-[H]):[#7]:[#6](:[#7](:[#6]:1-2)-[H])-[H])-[H]', '[#7]1:[#6](:[#7]:[#6]2:[#6](-[#8-]):[#7](:[#6](:[#7+](:[#6]:1-2)-[H])-[H])-[H])-[H]', '[#7]1(:[#6](:[#7+](:[#6]2:[#6](-[#8-]):[#7]:[#6](:[#7]:[#6]:1:2)-[H])-[H])-[H])-[H]', '[#7]1(:[#6](:[#7]:[#6]2:[#6](=[#8]):[#7](:[#6](:[#7]:[#6]:1:2)-[H])-[H])-[H])-[H]', '[#7]1(:[#6](:[#7]:[#6]2:[#6](-[#8]-[H]):[#7]:[#6](:[#7]:[#6]:1:2)-[H])-[H])-[H]', '[#7]1:[#6](:[#7](:[#6]2:[#6](-[#8]-[H]):[#7]:[#6](:[#7]:[#6]:1:2)-[H])-[H])-[H]', '[#7]1(:[#6-]:[#7+](:[#6]2:[#6](-[#8-]):[#7](:[#6](:[#7]:[#6]:1-2)-[H])-[H])-[H])-[H]', '[#7]1:[#6](:[#7](:[#6]2:[#6](=[#8]):[#7]:[#6](:[#7](:[#6]:1:2)-[H])-[H])-[H])-[H]', '[#7]1:[#6](:[#7](:[#6]2:[#6](=[#8]):[#7](:[#6](:[#7]:[#6]:1:2)-[H])-[H])-[H])-[H]', '[#7]1(:[#6](:[#7]:[#6]2:[#6](=[#8]):[#7]:[#6](:[#7](:[#6]:1:2)-[H])-[H])-[H])-[H]', '[#7]1:[#6](:[#7]:[#6]2:[#6](-[#8]-[H]):[#7](:[#6](:[#7]:[#6]:1-2)-[H])-[H])-[H]']","['InChI=1S/C5H4N4O/c10-5-3-4(7-1-6-3)8-2-9-5/h1-2H,(H2,6,7,8,9,10)', 'InChI=1S/C5H4N4O/c10-5-3-4(7-1-6-3)8-2-9-5/h2,6-7H,(H-,8,9,10)']","['FDGQSTZJBFJUBT-UHFFFAOYSA-N', 'OWPJNBGWRTYZBY-UHFFFAOYSA-N']"
hypoxanthine_neut->an,8.5,hypoxanthine,profiles of drug substances excipiends and related (U),"['[H]Oc1nc([H])n([H])c2nc([H])nc1-2', '[H]c1nc2c([O-])n([H])c([H])[n+]([H])c-2n1', '[H]c1nc([O-])c2c(n1)n([H])c([H])[n+]2[H]', '[H]c1nc2c(nc([H])n2[H])c(=O)n1[H]', '[H]Oc1nc([H])nc2c1nc([H])n2[H]', '[H]Oc1nc([H])nc2nc([H])n([H])c12', '[H]c1nc2[n+]([H])[c-][n+]([H])c-2c([O-])n1[H]', '[H]c1nc(=O)c2c(nc([H])n2[H])n1[H]', '[H]c1nc2nc([H])n([H])c2c(=O)n1[H]', '[H]c1nc(=O)c2nc([H])n([H])c2n1[H]', '[H]Oc1c2nc([H])nc-2nc([H])n1[H]']","['[#7]1:[#6](:[#7]:[#6]2:[#6](-[#8]-[H]):[#7]:[#6](:[#7](:[#6]:1-2)-[H])-[H])-[H]', '[#7]1:[#6](:[#7]:[#6]2:[#6](-[#8-]):[#7](:[#6](:[#7+](:[#6]:1-2)-[H])-[H])-[H])-[H]', '[#7]1(:[#6](:[#7+](:[#6]2:[#6](-[#8-]):[#7]:[#6](:[#7]:[#6]:1:2)-[H])-[H])-[H])-[H]', '[#7]1(:[#6](:[#7]:[#6]2:[#6](=[#8]):[#7](:[#6](:[#7]:[#6]:1:2)-[H])-[H])-[H])-[H]', '[#7]1(:[#6](:[#7]:[#6]2:[#6](-[#8]-[H]):[#7]:[#6](:[#7]:[#6]:1:2)-[H])-[H])-[H]', '[#7]1:[#6](:[#7](:[#6]2:[#6](-[#8]-[H]):[#7]:[#6](:[#7]:[#6]:1:2)-[H])-[H])-[H]', '[#7]1(:[#6-]:[#7+](:[#6]2:[#6](-[#8-]):[#7](:[#6](:[#7]:[#6]:1-2)-[H])-[H])-[H])-[H]', '[#7]1:[#6](:[#7](:[#6]2:[#6](=[#8]):[#7]:[#6](:[#7](:[#6]:1:2)-[H])-[H])-[H])-[H]', '[#7]1:[#6](:[#7](:[#6]2:[#6](=[#8]):[#7](:[#6](:[#7]:[#6]:1:2)-[H])-[H])-[H])-[H]', '[#7]1(:[#6](:[#7]:[#6]2:[#6](=[#8]):[#7]:[#6](:[#7](:[#6]:1:2)-[H])-[H])-[H])-[H]', '[#7]1:[#6](:[#7]:[#6]2:[#6](-[#8]-[H]):[#7](:[#6](:[#7]:[#6]:1-2)-[H])-[H])-[H]']","['InChI=1S/C5H4N4O/c10-5-3-4(7-1-6-3)8-2-9-5/h1-2H,(H2,6,7,8,9,10)', 'InChI=1S/C5H4N4O/c10-5-3-4(7-1-6-3)8-2-9-5/h2,6-7H,(H-,8,9,10)']","['FDGQSTZJBFJUBT-UHFFFAOYSA-N', 'OWPJNBGWRTYZBY-UHFFFAOYSA-N']"
imidazole_cation->neut,6.95,imidazole,profiles of drug substances excipiends and related (U),['[H]c1nc([H])n([H])c1[H]'],['[#6]1(:[#7]:[#6](:[#6](-[H]):[#7]:1-[H])-[H])-[H]'],"['InChI=1S/C3H4N2/c1-2-5-3-4-1/h1-3H,(H,4,5)']",['RAXXELZNTBOGNW-UHFFFAOYSA-N']
imidazole_neut->an,14.17,imidazole,doi.org/10.1016/0040-4020(67)85151-2,['[H]c1nc([H])n([H])c1[H]'],['[#6]1(:[#7]:[#6](:[#6](-[H]):[#7]:1-[H])-[H])-[H]'],"['InChI=1S/C3H4N2/c1-2-5-3-4-1/h1-3H,(H,4,5)']",['RAXXELZNTBOGNW-UHFFFAOYSA-N']
indazole_cation->neut,1.25,indazole,10.1002/ejoc.201700749,"['[H]c1c([H])c([H])c2c([H])n([H])nc2c1[H]', '[H]c1c([H])c([H])c2c(c([H])nn2[H])c1[H]']","['[#6]12:[#6](:[#6](:[#6](:[#6](:[#6]:1-[H])-[H])-[H])-[H]):[#7]:[#7](:[#6]:2-[H])-[H]', '[#6]12:[#6](:[#6](:[#6](:[#6](:[#6]:1-[H])-[H])-[H])-[H]):[#7](:[#7]:[#6]:2-[H])-[H]']","['InChI=1S/C7H6N2/c1-2-4-7-6(3-1)5-8-9-7/h1-5H,(H,8,9)']",['BAXOFTOLAUCFNW-UHFFFAOYSA-N']
indazole_neut->an,13.9,indazole,doi.org/10.1007/s00894-018-3892-4,"['[H]c1c([H])c([H])c2c([H])n([H])nc2c1[H]', '[H]c1c([H])c([H])c2c(c([H])nn2[H])c1[H]']","['[#6]12:[#6](:[#6](:[#6](:[#6](:[#6]:1-[H])-[H])-[H])-[H]):[#7]:[#7](:[#6]:2-[H])-[H]', '[#6]12:[#6](:[#6](:[#6](:[#6](:[#6]:1-[H])-[H])-[H])-[H]):[#7](:[#7]:[#6]:2-[H])-[H]']","['InChI=1S/C7H6N2/c1-2-4-7-6(3-1)5-8-9-7/h1-5H,(H,8,9)']",['BAXOFTOLAUCFNW-UHFFFAOYSA-N']
indoline_cation->neut,4.9,indoline,10.1007/s00894-018-3892-4,['[H]c1c([H])c([H])c2c(c1[H])N([H])C([H])([H])C2([H])[H]'],['[#6]12:[#6](:[#6](:[#6](:[#6](:[#6]:1-[H])-[H])-[H])-[H])-[#7](-[#6@@](-[#6@]-2(-[H])-[H])(-[H])-[H])-[H]'],"['InChI=1S/C8H9N/c1-2-4-8-7(3-1)5-6-9-8/h1-4,9H,5-6H2']",['LPAGFVYQRIESJQ-UHFFFAOYSA-N']
iodoacetic_neut->an,3.18,iodoacetic acid,Lange's handbook of chemistry,['[H]OC(=O)C([H])([H])I'],['[H]-[#6@](-[H])(-[#53])-[#6](=[#8])-[#8]-[H]'],"['InChI=1S/C2H3IO2/c3-1-2(4)5/h1H2,(H,4,5)']",['JDNTWHVOXJZDSN-UHFFFAOYSA-N']
isoasparagine_cation->neut,2.97,isoasparagine,Lange's handbook of chemistry,['[H]N([H])C(=O)[C@]([H])(C([H])([H])C(=O)[O-])[N+]([H])([H])[H]'],['[#8]=[#6](-[#7](-[H])-[H])-[#6@@](-[#7@+](-[H])(-[H])-[H])(-[#6@](-[#6](=[#8])-[#8-])(-[H])-[H])-[H]'],"['InChI=1S/C4H8N2O3/c5-2(4(6)9)1-3(7)8/h2H,1,5H2,(H2,6,9)(H,7,8)/t2-/m0/s1']",['PMLJIHNCYNOQEQ-REOHCLBHSA-N']
isoasparagine_neut->an,8.02,isoasparagine,Lange's handbook of chemistry,['[H]N([H])C(=O)[C@]([H])(C([H])([H])C(=O)[O-])[N+]([H])([H])[H]'],['[#8]=[#6](-[#7](-[H])-[H])-[#6@@](-[#7@+](-[H])(-[H])-[H])(-[#6@](-[#6](=[#8])-[#8-])(-[H])-[H])-[H]'],"['InChI=1S/C4H8N2O3/c5-2(4(6)9)1-3(7)8/h2H,1,5H2,(H2,6,9)(H,7,8)/t2-/m0/s1']",['PMLJIHNCYNOQEQ-REOHCLBHSA-N']
isoglutamine_cation->neut,3.81,isoglutamine,Lange's handbook of chemistry,['[H]N([H])C(=O)[C@]([H])(C([H])([H])C([H])([H])C(=O)[O-])[N+]([H])([H])[H]'],['[#8]=[#6](-[#7](-[H])-[H])-[#6@@](-[#7@+](-[H])(-[H])-[H])(-[#6@@](-[#6@@](-[#6](=[#8])-[#8-])(-[H])-[H])(-[H])-[H])-[H]'],"['InChI=1S/C5H10N2O3/c6-3(5(7)10)1-2-4(8)9/h3H,1-2,6H2,(H2,7,10)(H,8,9)/t3-/m0/s1']",['AEFLONBTGZFSGQ-VKHMYHEASA-N']
isoglutamine_neut->an,7.88,isoglutamine,Lange's handbook of chemistry,['[H]N([H])C(=O)[C@]([H])(C([H])([H])C([H])([H])C(=O)[O-])[N+]([H])([H])[H]'],['[#8]=[#6](-[#7](-[H])-[H])-[#6@@](-[#7@+](-[H])(-[H])-[H])(-[#6@@](-[#6@@](-[#6](=[#8])-[#8-])(-[H])-[H])(-[H])-[H])-[H]'],"['InChI=1S/C5H10N2O3/c6-3(5(7)10)1-2-4(8)9/h3H,1-2,6H2,(H2,7,10)(H,8,9)/t3-/m0/s1']",['AEFLONBTGZFSGQ-VKHMYHEASA-N']