compn,pKa,correct name,reference,smiles,smarts,inchi,inchiKey
canaline_neut->an,9.2,canaline,Lange's handbook of chemistry,['[H]N([H])OC([H])([H])C([H])([H])[C@@]([H])(C(=O)[O-])[N+]([H])([H])[H]'],['[#8](-[#7](-[H])-[H])-[#6@](-[#6@@](-[#6@](-[#7@+](-[H])(-[H])-[H])(-[#6](=[#8])-[#8-])-[H])(-[H])-[H])(-[H])-[H]'],"['InChI=1S/C4H10N2O3/c5-3(4(7)8)1-2-9-6/h3H,1-2,5-6H2,(H,7,8)/t3-/m0/s1']",['FQPGMQABJNQLLF-VKHMYHEASA-N']
canavanine_2cation->cation,2.5,canavanine,Lange's handbook of chemistry,['[H]N([H])C(=NOC([H])([H])C([H])([H])[C@@]([H])(C(=O)[O-])[N+]([H])([H])[H])N([H])[H]'],['[#8](-[#7]=[#6](-[#7](-[H])-[H])-[#7](-[H])-[H])-[#6@](-[#6@@](-[#6@](-[#7@+](-[H])(-[H])-[H])(-[#6](=[#8])-[#8-])-[H])(-[H])-[H])(-[H])-[H]'],"['InChI=1S/C5H12N4O3/c6-3(4(10)11)1-2-12-9-5(7)8/h3H,1-2,6H2,(H,10,11)(H4,7,8,9)/t3-/m0/s1']",['FSBIGDSBMBYOPN-VKHMYHEASA-N']
canavanine_cation->neut,6.6,canavanine,Lange's handbook of chemistry,['[H]N([H])C(=NOC([H])([H])C([H])([H])[C@@]([H])(C(=O)[O-])[N+]([H])([H])[H])N([H])[H]'],['[#8](-[#7]=[#6](-[#7](-[H])-[H])-[#7](-[H])-[H])-[#6@](-[#6@@](-[#6@](-[#7@+](-[H])(-[H])-[H])(-[#6](=[#8])-[#8-])-[H])(-[H])-[H])(-[H])-[H]'],"['InChI=1S/C5H12N4O3/c6-3(4(10)11)1-2-12-9-5(7)8/h3H,1-2,6H2,(H,10,11)(H4,7,8,9)/t3-/m0/s1']",['FSBIGDSBMBYOPN-VKHMYHEASA-N']
canavanine_neut->an,9.25,canavanine,Lange's handbook of chemistry,['[H]N([H])C(=NOC([H])([H])C([H])([H])[C@@]([H])(C(=O)[O-])[N+]([H])([H])[H])N([H])[H]'],['[#8](-[#7]=[#6](-[#7](-[H])-[H])-[#7](-[H])-[H])-[#6@](-[#6@@](-[#6@](-[#7@+](-[H])(-[H])-[H])(-[#6](=[#8])-[#8-])-[H])(-[H])-[H])(-[H])-[H]'],"['InChI=1S/C5H12N4O3/c6-3(4(10)11)1-2-12-9-5(7)8/h3H,1-2,6H2,(H,10,11)(H4,7,8,9)/t3-/m0/s1']",['FSBIGDSBMBYOPN-VKHMYHEASA-N']
carbamodithioic_neut->an,2.95,carbamodithioic acid,CRC handbook of chemistry and physics,['[H]SC(=S)N([H])[H]'],['[#16](-[#6](=[#16])-[#7](-[H])-[H])-[H]'],"['InChI=1S/CH3NS2/c2-1(3)4/h(H3,2,3,4)']",['DKVNPHBNOWQYFE-UHFFFAOYSA-N']
carbamoylacetic_neut->an,3.64,carbamoylacetic acid,Lange's handbook of chemistry,['[H]OC(=O)C([H])([H])C(=O)N([H])[H]'],['[#8](-[#6](=[#8])-[#6@@](-[#6](=[#8])-[#7](-[H])-[H])(-[H])-[H])-[H]'],"['InChI=1S/C3H5NO3/c4-2(5)1-3(6)7/h1H2,(H2,4,5)(H,6,7)']",['CGJMROBVSBIBKP-UHFFFAOYSA-N']
carbamoylalanine_neut->an,3.89,carbamoyl-l-alanine,Lange's handbook of chemistry,['[H]OC(=O)[C@@]([H])(N([H])C(=O)N([H])[H])C([H])([H])[H]'],['[#8](-[#6](=[#8])-[#6@@](-[#7](-[#6](=[#8])-[#7](-[H])-[H])-[H])(-[#6@@](-[H])(-[H])-[H])-[H])-[H]'],"['InChI=1S/C4H8N2O3/c1-2(3(7)8)6-4(5)9/h2H,1H3,(H,7,8)(H3,5,6,9)/t2-/m0/s1']",['LUSWEUMSEVLFEQ-REOHCLBHSA-N']
carbamoylbalanine_neut->an,4.99,carbamoyl-b-alanine,Lange's handbook of chemistry,['[H]OC(=O)C([H])([H])C([H])([H])N([H])C(=O)N([H])[H]'],['[#8](-[#6](=[#8])-[#6@@](-[#6@](-[#7](-[#6](=[#8])-[#7](-[H])-[H])-[H])(-[H])-[H])(-[H])-[H])-[H]'],"['InChI=1S/C4H8N2O3/c5-4(9)6-2-1-3(7)8/h1-2H2,(H,7,8)(H3,5,6,9)']",['JSJWCHRYRHKBBW-UHFFFAOYSA-N']
carbamoylglicine_neut->an,3.88,carbamoylglycine,Lange's handbook of chemistry,['[H]OC(=O)C([H])([H])N([H])C(=O)N([H])[H]'],['[#8](-[#6](=[#8])-[#6@@](-[#7](-[#6](=[#8])-[#7](-[H])-[H])-[H])(-[H])-[H])-[H]'],"['InChI=1S/C3H6N2O3/c4-3(8)5-1-2(6)7/h1H2,(H,6,7)(H3,4,5,8)']",['KZVRXPPUJQRGFN-UHFFFAOYSA-N']
carbedazim_cation->neut,4.53,carbendazim,10.1002/ejoc.201700749,['[H]c1c([H])c([H])c2c(nc(N([H])C(=O)OC([H])([H])[H])n2[H])c1[H]'],['[#6]12:[#6](:[#6](:[#6](:[#6](:[#6]:1:[#7](:[#6](:[#7]:2)-[#7](-[#6](=[#8])-[#8]-[#6@](-[H])(-[H])-[H])-[H])-[H])-[H])-[H])-[H])-[H]'],"['InChI=1S/C9H9N3O2/c1-14-9(13)12-8-10-6-4-2-3-5-7(6)11-8/h2-5H,1H3,(H2,10,11,12,13)']",['TWFZGCMQGLPBSX-UHFFFAOYSA-N']
carnitine_cation->neut,3.8,carnitine,http://www.zirchrom.com/organic.htm,['[H]O[C@@]([H])(C([H])([H])C(=O)[O-])C([H])([H])[N+](C([H])([H])[H])(C([H])([H])[H])C([H])([H])[H]'],['[#6](=[#8])(-[#8-])-[#6@](-[H])(-[H])-[#6@@](-[H])(-[#6@@](-[H])(-[H])-[#7@+](-[#6@@](-[H])(-[H])-[H])(-[#6@@](-[H])(-[H])-[H])-[#6@](-[H])(-[H])-[H])-[#8]-[H]'],"['InChI=1S/C7H15NO3/c1-8(2,3)5-6(9)4-7(10)11/h6,9H,4-5H2,1-3H3/t6-/m0/s1']",['PHIQHXFUZVPYII-LURJTMIESA-N']
chloro-benzotriazoleoxime_neut->an,4.62,6-chloro-1h-benzotriazole-1-ol,"J.Chem.Soc.Pak., Vol. 33, No. 3, 2011, 324-332","['[H]On1nnc2c([H])c([H])c(Cl)c([H])c21', '[H]c1c(Cl)c([H])c2c(n[n+]([H])n2[O-])c1[H]', '[H]c1c(Cl)c([H])c2c(c1[H])[n+]([H])nn2[O-]']","['[#6]12:[#6](:[#6](:[#6](:[#6](:[#6]:1-[H])-[#17])-[H])-[H]):[#7]:[#7]:[#7]:2-[#8]-[H]', '[#6]12:[#6](:[#6](:[#6](:[#6](:[#6]:1-[H])-[#17])-[H])-[H]):[#7]:[#7+](:[#7]:2-[#8-])-[H]', '[#6]12:[#6](:[#6](:[#6](:[#6](:[#6]:1-[H])-[#17])-[H])-[H]):[#7+](:[#7]:[#7]:2-[#8-])-[H]']","['InChI=1S/C6H4ClN3O/c7-4-1-2-5-6(3-4)10(11)9-8-5/h1-3,11H', 'InChI=1S/C6H3ClN3O/c7-4-1-2-5-6(3-4)10(11)9-8-5/h1-3H/q-1/p+1']","['TZCYLJGNWDVJRA-UHFFFAOYSA-N', 'VQXYLYVGCKODFN-UHFFFAOYSA-O']"
chloroacetic_neut->an,2.87,chloroacetic acid,Lange's handbook of chemistry,['[H]OC(=O)C([H])([H])Cl'],['[#6](=[#8])(-[#8]-[H])-[#6@@](-[#17])(-[H])-[H]'],"['InChI=1S/C2H3ClO2/c3-1-2(4)5/h1H2,(H,4,5)']",['FOCAUTSVDIKZOP-UHFFFAOYSA-N']
chlorodifluoroacetic_neut->an,0.46,chlorodifluoroacetic acid,Lange's handbook of chemistry,['[H]OC(=O)C(F)(F)Cl'],['[#9]-[#6@](-[#9])(-[#17])-[#6](=[#8])-[#8]-[H]'],"['InChI=1S/C2HClF2O2/c3-2(4,5)1(6)7/h(H,6,7)']",['OAWAZQITIZDJRB-UHFFFAOYSA-N']
chloromethylphosphonic_an->2an,6.3,chloromethylphosphonic acid,10.1021/ja01118a510,['[H]OP(=O)(O[H])C([H])([H])Cl'],['[#17]-[#6@](-[#15@](-[#8]-[H])(-[#8]-[H])=[#8])(-[H])-[H]'],"['InChI=1S/CH4ClO3P/c2-1-6(3,4)5/h1H2,(H2,3,4,5)']",['MOFCYHDQWIZKMY-UHFFFAOYSA-N']
chloromethylphosphonic_neut->an,1.4,chloromethylphosphonic acid,10.1021/ja01118a510,['[H]OP(=O)(O[H])C([H])([H])Cl'],['[#17]-[#6@](-[#15@](-[#8]-[H])(-[#8]-[H])=[#8])(-[H])-[H]'],"['InChI=1S/CH4ClO3P/c2-1-6(3,4)5/h1H2,(H2,3,4,5)']",['MOFCYHDQWIZKMY-UHFFFAOYSA-N']
chloropropynoic_neut->an,1.85,chloropropynoic acid,Lange's handbook of chemistry,['[H]OC(=O)C#CCl'],['[#17]-[#6]#[#6]-[#6](-[#8]-[H])=[#8]'],"['InChI=1S/C3HClO2/c4-2-1-3(5)6/h(H,5,6)']",['FAHNQEQHVOLRSI-UHFFFAOYSA-N']
chlorotetrazole_neut->an,2.07,5-chlorotetrazole,https://pubs.acs.org/doi/epdf/10.1021/jp040388a,"['[H]n1nnc(Cl)n1', '[H]n1nnnc1Cl']","['[#7]1:[#6](:[#7]:[#7](:[#7]:1)-[H])-[#17]', '[#1]-[#7]1:[#6](:[#7]:[#7]:[#7]:1)-[#17]']","['InChI=1S/CHClN4/c2-1-3-5-6-4-1/h(H,3,4,5,6)']",['AKTHZWMYNACDDW-UHFFFAOYSA-N']
cinchonine_2cation->cation,4.04,cinchonine,profiles of drug substances excipiends and related (U),['[H]O[C@@]([H])(c1c([H])c([H])nc2c([H])c([H])c([H])c([H])c12)[C@]1([H])N2C([H])([H])C([H])([H])[C@@]([H])(C1([H])[H])[C@@]([H])(C([H])=C([H])[H])C2([H])[H]'],['[#8](-[H])-[#6@](-[#6]1:[#6](:[#6](:[#7]:[#6]2:[#6](:[#6](:[#6](:[#6](:[#6]:1:2)-[H])-[H])-[H])-[H])-[H])-[H])(-[H])-[#6@@]1(-[#7]2-[#6@@](-[H])(-[#6@@](-[H])(-[H])-[#6@@](-[H])(-[#6@@]-1(-[H])-[H])-[#6@](-[#6](=[#6](-[H])-[H])-[H])(-[H])-[#6@]-2(-[H])-[H])-[H])-[H]'],"['InChI=1S/C19H22N2O/c1-2-13-12-21-10-8-14(13)11-18(21)19(22)16-7-9-20-17-6-4-3-5-15(16)17/h2-7,9,13-14,18-19,22H,1,8,10-12H2/t13-,14-,18+,19-/m0/s1']",['KMPWYEUPVWOPIM-QAMTZSDWSA-N']
cinchonine_cation->neut,8.15,cinchonine,profiles of drug substances excipiends and related (U),['[H]O[C@@]([H])(c1c([H])c([H])nc2c([H])c([H])c([H])c([H])c12)[C@]1([H])N2C([H])([H])C([H])([H])[C@@]([H])(C1([H])[H])[C@@]([H])(C([H])=C([H])[H])C2([H])[H]'],['[#8](-[H])-[#6@](-[#6]1:[#6](:[#6](:[#7]:[#6]2:[#6](:[#6](:[#6](:[#6](:[#6]:1:2)-[H])-[H])-[H])-[H])-[H])-[H])(-[H])-[#6@@]1(-[#7]2-[#6@@](-[H])(-[#6@@](-[H])(-[H])-[#6@@](-[H])(-[#6@@]-1(-[H])-[H])-[#6@](-[#6](=[#6](-[H])-[H])-[H])(-[H])-[#6@]-2(-[H])-[H])-[H])-[H]'],"['InChI=1S/C19H22N2O/c1-2-13-12-21-10-8-14(13)11-18(21)19(22)16-7-9-20-17-6-4-3-5-15(16)17/h2-7,9,13-14,18-19,22H,1,8,10-12H2/t13-,14-,18+,19-/m0/s1']",['KMPWYEUPVWOPIM-QAMTZSDWSA-N']
cinnoline_cation->neut,2.35,cinnolinone,10.1002/jcc.23068,['[H]c1nnc2c([H])c([H])c([H])c([H])c2c1[H]'],['[#6]1(:[#6](:[#6]2:[#6](:[#6](:[#6]:1-[H])-[H]):[#6](:[#6](-[H]):[#7]:[#7]:2)-[H])-[H])-[H]'],['InChI=1S/C8H6N2/c1-2-4-8-7(3-1)5-6-9-10-8/h1-6H'],['WCZVZNOTHYJIEI-UHFFFAOYSA-N']
cis12cyclohexanediamine_2cation->cation,6.43,"cis-1,2-cyclohexanediamine",Lange's handbook of chemistry,['[H]N([H])[C@@]1([H])C([H])([H])C([H])([H])C([H])([H])C([H])([H])[C@@]1([H])N([H])[H]'],['[#7](-[#6@]1(-[#6@@](-[#7](-[H])-[H])(-[#6@](-[#6@](-[#6@@](-[#6@@]-1(-[H])-[H])(-[H])-[H])(-[H])-[H])(-[H])-[H])-[H])-[H])(-[H])-[H]'],"['InChI=1S/C6H14N2/c7-5-3-1-2-4-6(5)8/h5-6H,1-4,7-8H2/t5-,6+']",['SSJXIUAHEKJCMH-OLQVQODUSA-N']
cis12cyclohexanediamine_cation->neut,9.93,"cis-1,2-cyclohexanediamine",Lange's handbook of chemistry,['[H]N([H])[C@@]1([H])C([H])([H])C([H])([H])C([H])([H])C([H])([H])[C@@]1([H])N([H])[H]'],['[#7](-[#6@]1(-[#6@@](-[#7](-[H])-[H])(-[#6@](-[#6@](-[#6@@](-[#6@@]-1(-[H])-[H])(-[H])-[H])(-[H])-[H])(-[H])-[H])-[H])-[H])(-[H])-[H]'],"['InChI=1S/C6H14N2/c7-5-3-1-2-4-6(5)8/h5-6H,1-4,7-8H2/t5-,6+']",['SSJXIUAHEKJCMH-OLQVQODUSA-N']
ciscyclohexan12dicarboxylic_neut->an,4.34,"cis-cyclohexane-1,2-dicarboxylic acid",Lange's handbook of chemistry,['[H]OC(=O)[C@@]1([H])C([H])([H])C([H])([H])C([H])([H])C([H])([H])[C@@]1([H])C(=O)O[H]'],['[#8](-[#6](=[#8])-[#6@@]1(-[#6@@](-[#6@](-[#6@](-[#6@@](-[#6@@]-1(-[H])-[H])(-[H])-[H])(-[H])-[H])(-[H])-[H])(-[#6](-[#8]-[H])=[#8])-[H])-[H])-[H]'],"['InChI=1S/C8H12O4/c9-7(10)5-3-1-2-4-6(5)8(11)12/h5-6H,1-4H2,(H,9,10)(H,11,12)/t5-,6+']",['QSAWQNUELGIYBC-OLQVQODUSA-N']
ciscyclohexan12dicarboxylic_an->2an,6.76,"cis-cyclohexane-1,2-dicarboxylic acid",Lange's handbook of chemistry,['[H]OC(=O)[C@@]1([H])C([H])([H])C([H])([H])C([H])([H])C([H])([H])[C@@]1([H])C(=O)O[H]'],['[#8](-[#6](=[#8])-[#6@@]1(-[#6@@](-[#6@](-[#6@](-[#6@@](-[#6@@]-1(-[H])-[H])(-[H])-[H])(-[H])-[H])(-[H])-[H])(-[#6](-[#8]-[H])=[#8])-[H])-[H])-[H]'],"['InChI=1S/C8H12O4/c9-7(10)5-3-1-2-4-6(5)8(11)12/h5-6H,1-4H2,(H,9,10)(H,11,12)/t5-,6+']",['QSAWQNUELGIYBC-OLQVQODUSA-N']
cis13cyclohexanedicarboxylic_an->2an,5.46,"cis-1,3-cyclohexanedicarboxylic acid",10.1021/jo302049z,['[H]OC(=O)[C@@]1([H])C([H])([H])C([H])([H])C([H])([H])[C@@]([H])(C(=O)O[H])C1([H])[H]'],['[H]-[#6@]1(-[#6@@](-[#6@](-[#6@](-[#6@](-[#6@@]-1(-[H])-[#6](=[#8])-[#8]-[H])(-[H])-[H])(-[H])-[H])(-[H])-[H])(-[H])-[#6](=[#8])-[#8]-[H])-[H]'],"['InChI=1S/C8H12O4/c9-7(10)5-2-1-3-6(4-5)8(11)12/h5-6H,1-4H2,(H,9,10)(H,11,12)/t5-,6+']",['XBZSBBLNHFMTEB-OLQVQODUSA-N']
cis13cyclohexanedicarboxylic_neut->an,4.1,"cis-1,3-cyclohexanedicarboxylic acid",10.1021/jo302049z,['[H]OC(=O)[C@@]1([H])C([H])([H])C([H])([H])C([H])([H])[C@@]([H])(C(=O)O[H])C1([H])[H]'],['[H]-[#6@]1(-[#6@@](-[#6@](-[#6@](-[#6@](-[#6@@]-1(-[H])-[#6](=[#8])-[#8]-[H])(-[H])-[H])(-[H])-[H])(-[H])-[H])(-[H])-[#6](=[#8])-[#8]-[H])-[H]'],"['InChI=1S/C8H12O4/c9-7(10)5-2-1-3-6(4-5)8(11)12/h5-6H,1-4H2,(H,9,10)(H,11,12)/t5-,6+']",['XBZSBBLNHFMTEB-OLQVQODUSA-N']
cischloroacrylic_neut->an,3.65,cis-3-chloroacrylic acid,Lange's handbook of chemistry,['[H]OC(=O)/C([H])=C(/[H])Cl'],['[#8](-[#6](=[#8])/[#6](=[#6](/[H])-[#17])-[H])-[H]'],"['InChI=1S/C3H3ClO2/c4-2-1-3(5)6/h1-2H,(H,5,6)/b2-1-']",['MHMUCYJKZUZMNJ-UPHRSURJSA-N']
ciscinnamic_neut->an,3.88,cis-cinnamic acid,Lange's handbook of chemistry,['[H]OC(=O)/C([H])=C(/[H])c1c([H])c([H])c([H])c([H])c1[H]'],['[#6]1(:[#6](:[#6](:[#6](:[#6](:[#6]:1-[H])-[H])/[#6](=[#6](/[H])-[#6](=[#8])-[#8]-[H])-[H])-[H])-[H])-[H]'],"['InChI=1S/C9H8O2/c10-9(11)7-6-8-4-2-1-3-5-8/h1-7H,(H,10,11)/b7-6-']",['WBYWAXJHAXSJNI-SREVYHEPSA-N']
cisethyleneoxidedicarboxylic_an->2an,3.92,"cis-2,3-oxiranedicarboxylic acid",Lange's handbook of chemistry,['[H]OC(=O)[C@]1([H])O[C@]1([H])C(=O)O[H]'],['[#8]1-[#6@@](-[#6@@]-1(-[H])-[#6](=[#8])-[#8]-[H])(-[H])-[#6](=[#8])-[#8]-[H]'],"['InChI=1S/C4H4O5/c5-3(6)1-2(9-1)4(7)8/h1-2H,(H,5,6)(H,7,8)/t1-,2+']",['DCEMCPAKSGRHCN-XIXRPRMCSA-N']
cisethyleneoxidedicarboxylic_neut->an,1.93,"cis-2,3-oxiranedicarboxylic acid",Lange's handbook of chemistry,['[H]OC(=O)[C@]1([H])O[C@]1([H])C(=O)O[H]'],['[#8]1-[#6@@](-[#6@@]-1(-[H])-[#6](=[#8])-[#8]-[H])(-[H])-[#6](=[#8])-[#8]-[H]'],"['InChI=1S/C4H4O5/c5-3(6)1-2(9-1)4(7)8/h1-2H,(H,5,6)(H,7,8)/t1-,2+']",['DCEMCPAKSGRHCN-XIXRPRMCSA-N']
cltetronic_neut->an,2.13,2-chlorotetronic acid,"G. KORTUM, W. VOGEL and K. ANDRUSSOW, DISSOCIATION CONSTANTS OF ORGANIC ACIDS IN AQUEOUS SOLUTION ","['[H]OC1=C([H])C(=O)O[C@@]1([H])Cl', '[H]OC1=C([H])C(=O)[C@]([H])(Cl)O1']","['[H]-[#6@@]1(-[#6](=[#6](-[H])-[#6](-[#8]-1)=[#8])-[#8]-[H])-[#17]', '[H]-[#6@@]1(-[#6](-[#6](-[H])=[#6](-[#8]-1)-[#8]-[H])=[#8])-[#17]']","['InChI=1S/C4H3ClO3/c5-4-2(6)1-3(7)8-4/h1,4,6H/t4-/m1/s1', 'InChI=1S/C4H3ClO3/c5-4-2(6)1-3(7)8-4/h1,4,7H/t4-/m1/s1']","['CKPAIBHFNHXIQV-SCSAIBSYSA-N', 'REJHZAFMTBZYHP-SCSAIBSYSA-N']"
codeine_cation->neut,8.22,codeine,profiles of drug substances excipiends and related (A),['[H]O[C@@]1([H])C([H])=C([H])[C@]2([H])[C@]34c5c(c(OC([H])([H])[H])c([H])c([H])c5C([H])([H])[C@@]2([H])N(C([H])([H])[H])C([H])([H])C3([H])[H])O[C@]41[H]'],['[#8]1-[#6@@]2(-[#6@]34-[#6@](-[#6@](-[#7](-[#6@](-[#6@@]-3(-[H])-[H])(-[H])-[H])-[#6@](-[H])(-[H])-[H])(-[#6@](-[#6]3:[#6]-4:[#6]-1:[#6](-[#8]-[#6@](-[H])(-[H])-[H]):[#6](:[#6]:3-[H])-[H])(-[H])-[H])-[H])(-[#6](=[#6](-[#6@@]-2(-[#8]-[H])-[H])-[H])-[H])-[H])-[H]'],"['InChI=1S/C18H21NO3/c1-19-8-7-18-11-4-5-13(20)17(18)22-16-14(21-2)6-3-10(15(16)18)9-12(11)19/h3-6,11-13,17,20H,7-9H2,1-2H3/t11-,12+,13-,17-,18-/m0/s1']",['OROGSEYTTFOCAN-DNJOTXNNSA-N']
creatine_cation->neut,2.79,creatine,profiles of drug substances excipiends and related (U),['[H]N([H])C(N(C([H])([H])[H])C([H])([H])C(=O)[O-])=[N+]([H])[H]'],['[#7](-[#6@@](-[H])(-[#6](=[#8])-[#8-])-[H])(-[#6@](-[H])(-[H])-[H])-[#6](-[#7](-[H])-[H])=[#7+](-[H])-[H]'],"['InChI=1S/C4H9N3O2/c1-7(4(5)6)2-3(8)9/h2H2,1H3,(H3,5,6)(H,8,9)']",['CVSVTCORWBXHQV-UHFFFAOYSA-N']
creatine_neut->an,12.07,creatine,profiles of drug substances excipiends and related (U),['[H]N([H])C(N(C([H])([H])[H])C([H])([H])C(=O)[O-])=[N+]([H])[H]'],['[#7](-[#6@@](-[H])(-[#6](=[#8])-[#8-])-[H])(-[#6@](-[H])(-[H])-[H])-[#6](-[#7](-[H])-[H])=[#7+](-[H])-[H]'],"['InChI=1S/C4H9N3O2/c1-7(4(5)6)2-3(8)9/h2H2,1H3,(H3,5,6)(H,8,9)']",['CVSVTCORWBXHQV-UHFFFAOYSA-N']
creatinine_cation->neut,4.83,creatinine,10.1002/jcc.23068,"['[H]c1c([O-])n([H])c(=[N+]([H])[H])n1C([H])([H])[H]', '[H]/N=C1/N([H])C(=O)C([H])([H])N1C([H])([H])[H]', '[H]Oc1nc(N([H])[H])n(C([H])([H])[H])c1[H]', '[H]/N=C1\\N=C(O[H])C([H])([H])N1C([H])([H])[H]', '[H]N([H])C1=NC(=O)C([H])([H])N1C([H])([H])[H]', '[H]/N=c1\\n([H])c(O[H])c([H])n1C([H])([H])[H]']","['[#8]-[#6]1:[#7](:[#6](:[#7](:[#6]:1-[H])-[#6@](-[H])(-[H])-[H])=[#7+](-[H])-[H])-[H]', '[#8]=[#6]1-[#7](/[#6](-[#7](-[#6@]-1(-[H])-[H])-[#6@](-[H])(-[H])-[H])=[#7]/[H])-[H]', '[#8](-[#6]1:[#7]:[#6](:[#7](:[#6]:1-[H])-[#6@](-[H])(-[H])-[H])-[#7](-[H])-[H])-[H]', '[#8](-[#6]1=[#7]/[#6](-[#7](-[#6@]-1(-[H])-[H])-[#6@](-[H])(-[H])-[H])=[#7]\\[H])-[H]', '[#8]=[#6]1-[#7]=[#6](-[#7](-[#6@]-1(-[H])-[H])-[#6@](-[H])(-[H])-[H])-[#7](-[H])-[H]', '[#8](-[#6]1:[#7](:[#6](:[#7](:[#6]:1-[H])-[#6@](-[H])(-[H])-[H])=[#7]\\[H])-[H])-[H]']","['InChI=1S/C4H7N3O/c1-7-2-3(8)6-4(7)5/h2,8H,1H3,(H2,5,6)', 'InChI=1S/C4H7N3O/c1-7-2-3(8)6-4(7)5/h2H2,1H3,(H2,5,6,8)']","['BTXYOFGSUFEOLA-UHFFFAOYSA-N', 'DDRJAANPRJIHGJ-UHFFFAOYSA-N']"
cumenehydroperoxide_neut->an,12.33,cumene hydroperoxide,doi.org/10.1021/j100846a021,['[H]OOC(c1c([H])c([H])c([H])c([H])c1[H])(C([H])([H])[H])C([H])([H])[H]'],['[#8](-[#8]-[H])-[#6@@](-[#6]1:[#6](:[#6](:[#6](:[#6](:[#6]:1-[H])-[H])-[H])-[H])-[H])(-[#6@@](-[H])(-[H])-[H])-[#6@](-[H])(-[H])-[H]'],"['InChI=1S/C9H12O2/c1-9(2,11-10)8-6-4-3-5-7-8/h3-7,10H,1-2H3']",['YQHLDYVWEZKEOX-UHFFFAOYSA-N']
cyanoacetic_neut->an,2.46,cyanoacetic acid,Lange's handbook of chemistry,['[H]OC(=O)C([H])([H])C#N'],['[#6](=[#8])(-[#8]-[H])-[#6@@](-[H])(-[H])-[#6]#[#7]'],"['InChI=1S/C3H3NO2/c4-2-1-3(5)6/h1H2,(H,5,6)']",['MLIREBYILWEBDM-UHFFFAOYSA-N']
cyanoethylamine_cation->neut,7.7,cyanoethylamine,Lange's handbook of chemistry,['[H]N([H])C([H])([H])C([H])([H])C#N'],['[#6](#[#7])-[#6@@](-[H])(-[H])-[#6@](-[H])(-[H])-[#7](-[H])-[H]'],"['InChI=1S/C3H6N2/c4-2-1-3-5/h1-2,4H2']",['AGSPXMVUFBBBMO-UHFFFAOYSA-N']
cyanomethylamine_cation->neut,5.34,cyanomethylamine,Lange's handbook of chemistry,['[H]N([H])C([H])([H])C#N'],['[#6](#[#7])-[#6@](-[H])(-[H])-[#7](-[H])-[H]'],"['InChI=1S/C2H4N2/c3-1-2-4/h1,3H2']",['DFNYGALUNNFWKJ-UHFFFAOYSA-N']
cyclobutan11dicarboxylic_neut->an,3.01,"cyclobutane-1,1-dicarboxylic acid",https://doi.org/10.1016/0022-1902(72)80587-6,['[H]OC(=O)C1(C(=O)O[H])C([H])([H])C([H])([H])C1([H])[H]'],['[H]-[#6@@]1(-[#6@](-[#6@@](-[#6@@]-1(-[H])-[H])(-[H])-[H])(-[#6](=[#8])-[#8]-[H])-[#6](=[#8])-[#8]-[H])-[H]'],"['InChI=1S/C6H8O4/c7-4(8)6(5(9)10)2-1-3-6/h1-3H2,(H,7,8)(H,9,10)']",['CCQPAEQGAVNNIA-UHFFFAOYSA-N']
cyclobutan11dicarboxylic_an->2an,5.55,"cyclobutane-1,1-dicarboxylic acid",https://doi.org/10.1016/0022-1902(72)80587-6,['[H]OC(=O)C1(C(=O)O[H])C([H])([H])C([H])([H])C1([H])[H]'],['[H]-[#6@@]1(-[#6@](-[#6@@](-[#6@@]-1(-[H])-[H])(-[H])-[H])(-[#6](=[#8])-[#8]-[H])-[#6](=[#8])-[#8]-[H])-[H]'],"['InChI=1S/C6H8O4/c7-4(8)6(5(9)10)2-1-3-6/h1-3H2,(H,7,8)(H,9,10)']",['CCQPAEQGAVNNIA-UHFFFAOYSA-N']
cyclobutan12cisdicarboxylic_neut->an,3.9,"cis-cyclobutane-1,2-dicarboxylic acid",Lange's handbook of chemistry,['[H]OC(=O)[C@@]1([H])C([H])([H])C([H])([H])[C@@]1([H])C(=O)O[H]'],['[H]-[#6@]1(-[#6@](-[#6@](-[#6@]-1(-[H])-[#6](=[#8])-[#8]-[H])(-[H])-[H])(-[H])-[H])-[#6](=[#8])-[#8]-[H]'],"['InChI=1S/C6H8O4/c7-5(8)3-1-2-4(3)6(9)10/h3-4H,1-2H2,(H,7,8)(H,9,10)/t3-,4+']",['SUSAGCZZQKACKE-ZXZARUISSA-N']
cyclobutan12cisdicarboxylic_an->2an,5.89,"cis-cyclobutane-1,2-dicarboxylic acid",Lange's handbook of chemistry,['[H]OC(=O)[C@@]1([H])C([H])([H])C([H])([H])[C@@]1([H])C(=O)O[H]'],['[H]-[#6@]1(-[#6@](-[#6@](-[#6@]-1(-[H])-[#6](=[#8])-[#8]-[H])(-[H])-[H])(-[H])-[H])-[#6](=[#8])-[#8]-[H]'],"['InChI=1S/C6H8O4/c7-5(8)3-1-2-4(3)6(9)10/h3-4H,1-2H2,(H,7,8)(H,9,10)/t3-,4+']",['SUSAGCZZQKACKE-ZXZARUISSA-N']
cyclobutan12transdicarboxylic_neut->an,3.79,"trans-cyclobutane-1,2-dicarboxylic acid",Lange's handbook of chemistry,['[H]OC(=O)[C@]1([H])C([H])([H])C([H])([H])[C@@]1([H])C(=O)O[H]'],['[H]-[#6@]1(-[#6@](-[#6@](-[#6@@]-1(-[H])-[#6](=[#8])-[#8]-[H])(-[H])-[H])(-[H])-[H])-[#6](=[#8])-[#8]-[H]'],"['InChI=1S/C6H8O4/c7-5(8)3-1-2-4(3)6(9)10/h3-4H,1-2H2,(H,7,8)(H,9,10)/t3-,4-/m1/s1']",['SUSAGCZZQKACKE-QWWZWVQMSA-N']
cyclobutan12transdicarboxylic_an->2an,5.61,"trans-cyclobutane-1,2-dicarboxylic acid",Lange's handbook of chemistry,['[H]OC(=O)[C@]1([H])C([H])([H])C([H])([H])[C@@]1([H])C(=O)O[H]'],['[H]-[#6@]1(-[#6@](-[#6@](-[#6@@]-1(-[H])-[#6](=[#8])-[#8]-[H])(-[H])-[H])(-[H])-[H])-[#6](=[#8])-[#8]-[H]'],"['InChI=1S/C6H8O4/c7-5(8)3-1-2-4(3)6(9)10/h3-4H,1-2H2,(H,7,8)(H,9,10)/t3-,4-/m1/s1']",['SUSAGCZZQKACKE-QWWZWVQMSA-N']
cyclobutan13cisdicarboxylic_neut->an,4.03,"cis-cyclobutane-1,3-dicarboxylic acid",Lange's handbook of chemistry,['[H]OC(=O)[C@]1([H])C([H])([H])[C@]([H])(C(=O)O[H])C1([H])[H]'],['[H]-[#6@]1(-[#6@](-[#6@](-[#6@]-1(-[H])-[H])(-[H])-[#6](=[#8])-[#8]-[H])(-[H])-[H])-[#6](=[#8])-[#8]-[H]'],"['InChI=1S/C6H8O4/c7-5(8)3-1-4(2-3)6(9)10/h3-4H,1-2H2,(H,7,8)(H,9,10)/t3-,4+']",['WYHYNUWZLKTEEY-ZXZARUISSA-N']
cyclobutan13cisdicarboxylic_an->2an,5.3,"cis-cyclobutane-1,3-dicarboxylic acid",Lange's handbook of chemistry,['[H]OC(=O)[C@]1([H])C([H])([H])[C@]([H])(C(=O)O[H])C1([H])[H]'],['[H]-[#6@]1(-[#6@](-[#6@](-[#6@]-1(-[H])-[H])(-[H])-[#6](=[#8])-[#8]-[H])(-[H])-[H])-[#6](=[#8])-[#8]-[H]'],"['InChI=1S/C6H8O4/c7-5(8)3-1-4(2-3)6(9)10/h3-4H,1-2H2,(H,7,8)(H,9,10)/t3-,4+']",['WYHYNUWZLKTEEY-ZXZARUISSA-N']
cyclobutan13transdicarboxylic_neut->an,3.8,"trans-cyclobutane-1,3-dicarboxylic acid",Lange's handbook of chemistry,['[H]OC(=O)[C@]1([H])C([H])([H])[C@@]([H])(C(=O)O[H])C1([H])[H]'],['[H]-[#6@]1(-[#6@](-[#6@@](-[#6@]-1(-[H])-[H])(-[H])-[#6](=[#8])-[#8]-[H])(-[H])-[H])-[#6](=[#8])-[#8]-[H]'],"['InChI=1S/C6H8O4/c7-5(8)3-1-4(2-3)6(9)10/h3-4H,1-2H2,(H,7,8)(H,9,10)/t3-,4-']",['WYHYNUWZLKTEEY-JPYJGEKTSA-N']