compn,pKa,correct name,reference,smiles,smarts,inchi,inchiKey
26dichloro135triazaindene_neut->an,6.85,"2,6-dichloro-3-deazapurine",doi.org/10.1039/J29660000285,"['[H]c1c2nc(Cl)nc-2c([H])n([H])c1Cl', '[H]c1c(Cl)nc([H])c2c1nc(Cl)n2[H]', '[H]c1nc(Cl)c([H])c2c1nc(Cl)n2[H]']","['[#7]1:[#6]2-[#6](:[#7]:[#6]:1-[#17]):[#6](:[#7](:[#6](:[#6]:2-[H])-[#17])-[H])-[H]', '[#7]1:[#6]2:[#6](:[#7](:[#6]:1-[#17])-[H]):[#6](:[#7]:[#6](:[#6]:2-[H])-[#17])-[H]', '[#7]1(:[#6]2:[#6](:[#7]:[#6]:1-[#17]):[#6](:[#7]:[#6](:[#6]:2-[H])-[#17])-[H])-[H]']","['InChI=1S/C6H3Cl2N3/c7-5-1-3-4(2-9-5)11-6(8)10-3/h1-2,9H', 'InChI=1S/C6H3Cl2N3/c7-5-1-3-4(2-9-5)11-6(8)10-3/h1-2H,(H,10,11)']","['JDCYSIFDYOTDRN-UHFFFAOYSA-N', 'AIGRVLNGOBWJIF-UHFFFAOYSA-N']"
Nmethyl2oxopyridine_cation->neut,0.32,1-methyl-2-oxopyridine,doi.org/10.1039/J29710001425,['[H]c1c([H])c([H])n(C([H])([H])[H])c(=O)c1[H]'],['[#6]1(:[#6](:[#7](:[#6](:[#6](:[#6]:1-[H])-[H])-[H])-[#6@@](-[H])(-[H])-[H])=[#8])-[H]'],"['InChI=1S/C6H7NO/c1-7-5-3-2-4-6(7)8/h2-5H,1H3']",['DVVGIUUJYPYENY-UHFFFAOYSA-N']
Nmethyl4oxopyridine_cation->neut,3.33,1-methyl-4-oxopyridine,doi.org/10.1039/J29710001425,['[H]c1c([H])n(C([H])([H])[H])c([H])c([H])c1=O'],['[#6]1(:[#6](-[H]):[#7](:[#6](:[#6](:[#6]:1=[#8])-[H])-[H])-[#6@@](-[H])(-[H])-[H])-[H]'],"['InChI=1S/C6H7NO/c1-7-4-2-6(8)3-5-7/h2-5H,1H3']",['OYPBUQASUUMJKG-UHFFFAOYSA-N']
Nmethyl6amino2oxopyridine_cation->neut,2.09,1-methyl-6-amino-4-oxopyridine,doi.org/10.1039/J29710001425,['[H]c1c([H])c(N([H])[H])n(C([H])([H])[H])c(=O)c1[H]'],['[#6]1(:[#6](:[#7](:[#6](:[#6](:[#6]:1-[H])-[H])-[#7](-[H])-[H])-[#6@@](-[H])(-[H])-[H])=[#8])-[H]'],"['InChI=1S/C6H8N2O/c1-8-5(7)3-2-4-6(8)9/h2-4H,7H2,1H3']",['LRUDTHYTKINLOF-UHFFFAOYSA-N']
Nmethyl5amino2oxopyridine_cation->neut,3.8,1-methyl-5-amino-4-oxopyridine,doi.org/10.1039/J29710001425,['[H]c1c(N([H])[H])c([H])n(C([H])([H])[H])c(=O)c1[H]'],['[#6]1(:[#6](:[#7](:[#6](:[#6](:[#6]:1-[H])-[#7](-[H])-[H])-[H])-[#6@@](-[H])(-[H])-[H])=[#8])-[H]'],"['InChI=1S/C6H8N2O/c1-8-4-5(7)2-3-6(8)9/h2-4H,7H2,1H3']",['OQHLYZTVUZZSRR-UHFFFAOYSA-N']
Nmethyl3amino2oxopyridine_cation->neut,2.94,1-methyl-3-amino-4-oxopyridine,doi.org/10.1039/J29710001425,['[H]c1c([H])c([H])n(C([H])([H])[H])c(=O)c1N([H])[H]'],['[#6]1(:[#6](:[#7](:[#6](:[#6](:[#6]:1-[H])-[H])-[H])-[#6@@](-[H])(-[H])-[H])=[#8])-[#7](-[H])-[H]'],"['InChI=1S/C6H8N2O/c1-8-4-2-3-5(7)6(8)9/h2-4H,7H2,1H3']",['IHSBTHXDCVIBPF-UHFFFAOYSA-N']
Nmethyl3amino4oxopyridine_cation->neut,3.88,3-amino-1-methyl-4(1h)-pyridinone,doi.org/10.1039/J29710001425,['[H]c1c([H])n(C([H])([H])[H])c([H])c(N([H])[H])c1=O'],['[#6]1(:[#6](-[H]):[#7](:[#6](:[#6](:[#6]:1=[#8])-[#7](-[H])-[H])-[H])-[#6@@](-[H])(-[H])-[H])-[H]'],"['InChI=1S/C6H8N2O/c1-8-3-2-6(9)5(7)4-8/h2-4H,7H2,1H3']",['FGHIGWGYVPCKMB-UHFFFAOYSA-N']
3hydroxyN1methylpyridazine_cation->neut,2.31,3-hydroxy-1-methylpyridazine,doi.org/10.1039/J29710001261,['[H]c1c([O-])n[n+](C([H])([H])[H])c([H])c1[H]'],['[#6]1(:[#6](:[#6](:[#6](-[H]):[#7+](:[#7]:1)-[#6@@](-[H])(-[H])-[H])-[H])-[H])-[#8-]'],"['InChI=1S/C5H6N2O/c1-7-4-2-3-5(8)6-7/h2-4H,1H3']",['IYOBJRDYWZQSFF-UHFFFAOYSA-N']
4hydroxyN1methylpyridazine_cation->neut,1.07,4-hydroxy-1-methylpyridazine,doi.org/10.1039/J29710001261,['[H]c1nn(C([H])([H])[H])c([H])c([H])c1=O'],['[#6]1(:[#6](:[#6](:[#6](-[H]):[#7](:[#7]:1)-[#6@@](-[H])(-[H])-[H])-[H])=[#8])-[H]'],"['InChI=1S/C5H6N2O/c1-7-3-2-5(8)4-6-7/h2-4H,1H3']",['DHKJWZRZAPAFGV-UHFFFAOYSA-N']
4hydroxyN2methylpyridazine_cation->neut,1.74,4-hydroxy-2-methylpyridazine,doi.org/10.1039/J29710001261,['[H]c1n[n+](C([H])([H])[H])c([H])c([O-])c1[H]'],['[#6]1(:[#6](:[#6](:[#6](-[H]):[#7+](:[#7]:1)-[#6@@](-[H])(-[H])-[H])-[#8-])-[H])-[H]'],"['InChI=1S/C5H6N2O/c1-7-4-5(8)2-3-6-7/h2-4H,1H3']",['LYRQZIKBKCAHTC-UHFFFAOYSA-N']
36dimercaptopyridazine_neut->an,2.06,"3,6-dimercaptopyridazine",doi.org/10.1039/P29740001199,"['[H]Sc1nnc(S[H])c([H])c1[H]', '[H]Sc1nn([H])c(=S)c([H])c1[H]', '[H]c1c([H])c(=S)n([H])n([H])c1=S', '[H]Sc1c([H])c([H])c(=S)[n-][n+]1[H]']","['[#6]1(:[#6](:[#6](:[#6](:[#7]:[#7]:1)-[#16]-[H])-[H])-[H])-[#16]-[H]', '[#6]1(:[#6](:[#6](:[#6](:[#7]:[#7]:1-[H])-[#16]-[H])-[H])-[H])=[#16]', '[#6]1(:[#6](:[#6](:[#6](:[#7](:[#7]:1-[H])-[H])=[#16])-[H])-[H])=[#16]', '[#6]1(:[#6](:[#6](:[#6](:[#7+](:[#7-]:1)-[H])-[#16]-[H])-[H])-[H])=[#16]']","['InChI=1S/C4H4N2S2/c7-3-1-2-4(8)6-5-3/h1-2H,(H,5,7)(H,6,8)', 'InChI=1S/C4H4N2S2/c7-3-1-2-4(8)6-5-3/h1-2,5H,(H-,6,7,8)']","['ICIMHRGIRRYUIW-UHFFFAOYSA-N', 'ALLKCUFWDPHKPA-UHFFFAOYSA-N']"
36dimercaptopyridazine_an->2an,10.36,"3,6-dimercaptopyridazine",doi.org/10.1039/P29740001199,"['[H]Sc1nnc(S[H])c([H])c1[H]', '[H]Sc1nn([H])c(=S)c([H])c1[H]', '[H]c1c([H])c(=S)n([H])n([H])c1=S', '[H]Sc1c([H])c([H])c(=S)[n-][n+]1[H]']","['[#6]1(:[#6](:[#6](:[#6](:[#7]:[#7]:1)-[#16]-[H])-[H])-[H])-[#16]-[H]', '[#6]1(:[#6](:[#6](:[#6](:[#7]:[#7]:1-[H])-[#16]-[H])-[H])-[H])=[#16]', '[#6]1(:[#6](:[#6](:[#6](:[#7](:[#7]:1-[H])-[H])=[#16])-[H])-[H])=[#16]', '[#6]1(:[#6](:[#6](:[#6](:[#7+](:[#7-]:1)-[H])-[#16]-[H])-[H])-[H])=[#16]']","['InChI=1S/C4H4N2S2/c7-3-1-2-4(8)6-5-3/h1-2H,(H,5,7)(H,6,8)', 'InChI=1S/C4H4N2S2/c7-3-1-2-4(8)6-5-3/h1-2,5H,(H-,6,7,8)']","['ICIMHRGIRRYUIW-UHFFFAOYSA-N', 'ALLKCUFWDPHKPA-UHFFFAOYSA-N']"
3thiomethyl6mercaptopyridazine_neut->an,8.19,6-(methylthio)pyridazine-3-thiol,doi.org/10.1039/P29740001199,"['[H]c1c(SC([H])([H])[H])nn([H])c(=S)c1[H]', '[H]Sc1nnc(SC([H])([H])[H])c([H])c1[H]', '[H]c1c([H])c(=S)[n-][n+]([H])c1SC([H])([H])[H]']","['[#6]1(:[#6](:[#6](:[#6](:[#7]:[#7]:1-[H])-[#16]-[#6@@](-[H])(-[H])-[H])-[H])-[H])=[#16]', '[#6]1(:[#6](:[#6](:[#6](:[#7]:[#7]:1)-[#16]-[#6@@](-[H])(-[H])-[H])-[H])-[H])-[#16]-[H]', '[#6]1(:[#6](:[#6](:[#6](:[#7+](:[#7-]:1)-[H])-[#16]-[#6@@](-[H])(-[H])-[H])-[H])-[H])=[#16]']","['InChI=1S/C5H6N2S2/c1-9-5-3-2-4(8)6-7-5/h2-3H,1H3,(H,6,8)', 'InChI=1S/C5H6N2S2/c1-9-5-3-2-4(8)6-7-5/h2-3,7H,1H3']","['KRUJLRLYOIRIDE-UHFFFAOYSA-N', 'PWSBUEPBJAOAKO-UHFFFAOYSA-N']"
36dithiomethylpyridazine_cation->neut,1.95,"pyridazine-3,6-dithiol",doi.org/10.1039/P29740001199,['[H]c1c(SC([H])([H])[H])nnc(SC([H])([H])[H])c1[H]'],['[#6]1(:[#6](:[#6](:[#6](:[#7]:[#7]:1)-[#16]-[#6@@](-[H])(-[H])-[H])-[H])-[H])-[#16]-[#6@@](-[H])(-[H])-[H]'],"['InChI=1S/C6H8N2S2/c1-9-5-3-4-6(10-2)8-7-5/h3-4H,1-2H3']",['BCPWVUPUCCLLBA-UHFFFAOYSA-N']
36dihydroxypyridazine_neut->an,5.67,"3,6-dihydroxypyridazine",doi.org/10.1039/P29740001199,"['[H]Oc1nn([H])c(=O)c([H])c1[H]', '[H]/[O+]=c1\\c([H])c([H])c([O-])nn1[H]', '[H]c1c([H])c(=O)n([H])n([H])c1=O', '[H]Oc1nnc(O[H])c([H])c1[H]']","['[#6]1(:[#6](:[#6](:[#6](:[#7](:[#7]:1)-[H])=[#8])-[H])-[H])-[#8]-[H]', '[#6]1(:[#6](:[#6](:[#6](:[#7](:[#7]:1)-[H])=[#8+]\\[H])-[H])-[H])-[#8-]', '[#6]1(:[#6](:[#6](:[#6](:[#7](:[#7]:1-[H])-[H])=[#8])-[H])-[H])=[#8]', '[#6]1(:[#6](:[#6](:[#6](:[#7]:[#7]:1)-[#8]-[H])-[H])-[H])-[#8]-[H]', '[#6]1(:[#6](:[#6](:[#6](:[#7]:[#7]:1-[H])-[#8-])-[H])-[H])=[#8+]\\[H]']","['InChI=1S/C4H4N2O2/c7-3-1-2-4(8)6-5-3/h1-2H,(H,5,7)(H,6,8)']",['BGRDGMRNKXEXQD-UHFFFAOYSA-N']
36dihydroxypyridazine_an->2an,13,"3,6-dihydroxypyridazine",doi.org/10.1039/P29740001199,"['[H]Oc1nn([H])c(=O)c([H])c1[H]', '[H]/[O+]=c1\\c([H])c([H])c([O-])nn1[H]', '[H]c1c([H])c(=O)n([H])n([H])c1=O', '[H]Oc1nnc(O[H])c([H])c1[H]']","['[#6]1(:[#6](:[#6](:[#6](:[#7](:[#7]:1)-[H])=[#8])-[H])-[H])-[#8]-[H]', '[#6]1(:[#6](:[#6](:[#6](:[#7](:[#7]:1)-[H])=[#8+]\\[H])-[H])-[H])-[#8-]', '[#6]1(:[#6](:[#6](:[#6](:[#7](:[#7]:1-[H])-[H])=[#8])-[H])-[H])=[#8]', '[#6]1(:[#6](:[#6](:[#6](:[#7]:[#7]:1)-[#8]-[H])-[H])-[H])-[#8]-[H]', '[#6]1(:[#6](:[#6](:[#6](:[#7]:[#7]:1-[H])-[#8-])-[H])-[H])=[#8+]\\[H]']","['InChI=1S/C4H4N2O2/c7-3-1-2-4(8)6-5-3/h1-2H,(H,5,7)(H,6,8)']",['BGRDGMRNKXEXQD-UHFFFAOYSA-N']
36dimethoxypyridazine_cation->neut,1.61,"3,6-dimethoxypyridazine",doi.org/10.1039/P29740001199,['[H]c1c(OC([H])([H])[H])nnc(OC([H])([H])[H])c1[H]'],['[#6]1(:[#6](:[#6](:[#6](:[#7]:[#7]:1)-[#8]-[#6@@](-[H])(-[H])-[H])-[H])-[H])-[#8]-[#6@@](-[H])(-[H])-[H]'],"['InChI=1S/C6H8N2O2/c1-9-5-3-4-6(10-2)8-7-5/h3-4H,1-2H3']",['HKQOBAGKDBSVEQ-UHFFFAOYSA-N']
2methylthio135triazaindene_neut->an,9.95,"1H-imidazo[4,5-c]pyridine",doi.org/10.1039/J29660000285,"['[H]c1c2nc(SC([H])([H])[H])nc-2c([H])n([H])c1[H]', '[H]c1nc([H])c2c(nc(SC([H])([H])[H])n2[H])c1[H]', '[H]c1nc([H])c2nc(SC([H])([H])[H])n([H])c2c1[H]']","['[#7]1:[#6]2-[#6](:[#7]:[#6]:1-[#16]-[#6@@](-[H])(-[H])-[H]):[#6](:[#7](:[#6](:[#6]:2-[H])-[H])-[H])-[H]', '[#7]1:[#6]2:[#6](:[#7](:[#6]:1-[#16]-[#6@@](-[H])(-[H])-[H])-[H]):[#6](:[#7]:[#6](:[#6]:2-[H])-[H])-[H]', '[#7]1(:[#6]2:[#6](:[#7]:[#6]:1-[#16]-[#6@@](-[H])(-[H])-[H]):[#6](:[#7]:[#6](:[#6]:2-[H])-[H])-[H])-[H]']","['InChI=1S/C7H7N3S/c1-11-7-9-5-2-3-8-4-6(5)10-7/h2-4,8H,1H3', 'InChI=1S/C7H7N3S/c1-11-7-9-5-2-3-8-4-6(5)10-7/h2-4H,1H3,(H,9,10)']","['MHTXUXQPKGLIEB-UHFFFAOYSA-N', 'XTDRPJHTQUWBSM-UHFFFAOYSA-N']"
paracetamol_neut->an,9.61,4-Acetamidophenol,profiles of drug substances excipiends and related (A),['[H]Oc1c([H])c([H])c(N([H])C(=O)C([H])([H])[H])c([H])c1[H]'],['[#8](-[#6]1:[#6](:[#6](:[#6](-[#7](-[#6](=[#8])-[#6@](-[H])(-[H])-[H])-[H]):[#6](:[#6]:1-[H])-[H])-[H])-[H])-[H]'],"['InChI=1S/C8H9NO2/c1-6(10)9-7-2-4-8(11)5-3-7/h2-5,11H,1H3,(H,9,10)']",['RZVAJINKPMORJF-UHFFFAOYSA-N']
acetazolamide_neut->an,7.2,acetazolamide,profiles of drug substances excipiends and related (U),['[H]N(C(=O)C([H])([H])[H])C1=[S+]C(=[S@@](=O)([O-])N([H])[H])N=N1'],['[#16+]1-[#6](=[#16@@](=[#8])(-[#8-])-[#7](-[H])-[H])-[#7]=[#7]-[#6]=1-[#7](-[#6](=[#8])-[#6@](-[H])(-[H])-[H])-[H]'],"['InChI=1S/C4H6N4O3S2/c1-2(9)6-3-7-8-4(12-3)13(5,10)11/h1H3,(H3-,5,6,7,8,9,10,11)']",['QMTKGGKLYGYQTL-UHFFFAOYSA-N']
acetazolamide_an->2an,8.8,acetazolamide,profiles of drug substances excipiends and related (U),['[H]N(C(=O)C([H])([H])[H])C1=[S+]C(=[S@@](=O)([O-])N([H])[H])N=N1'],['[#16+]1-[#6](=[#16@@](=[#8])(-[#8-])-[#7](-[H])-[H])-[#7]=[#7]-[#6]=1-[#7](-[#6](=[#8])-[#6@](-[H])(-[H])-[H])-[H]'],"['InChI=1S/C4H6N4O3S2/c1-2(9)6-3-7-8-4(12-3)13(5,10)11/h1H3,(H3-,5,6,7,8,9,10,11)']",['QMTKGGKLYGYQTL-UHFFFAOYSA-N']
6acetylmorphine_cation->neut,8.19,6-acetylmorphine,profiles of drug substances excipiends and related (U),['[H]Oc1c([H])c([H])c2c3c1O[C@]1([H])[C@]34C([H])([H])C([H])([H])N(C([H])([H])[H])[C@]([H])(C2([H])[H])[C@]4([H])C([H])=C([H])[C@]1([H])OC(=O)C([H])([H])[H]'],['[#8]1-[#6@@]2(-[#6@]34-[#6@](-[#6@](-[#7](-[#6@](-[#6@@]-3(-[H])-[H])(-[H])-[H])-[#6@](-[H])(-[H])-[H])(-[#6@](-[#6]3:[#6]-4:[#6]-1:[#6](-[#8]-[H]):[#6](:[#6]:3-[H])-[H])(-[H])-[H])-[H])(-[#6](=[#6](-[#6@@]-2(-[#8]-[#6](=[#8])-[#6@](-[H])(-[H])-[H])-[H])-[H])-[H])-[H])-[H]'],"['InChI=1S/C19H21NO4/c1-10(21)23-15-6-4-12-13-9-11-3-5-14(22)17-16(11)19(12,18(15)24-17)7-8-20(13)2/h3-6,12-13,15,18,22H,7-9H2,1-2H3/t12-,13+,15-,18-,19-/m0/s1']",['JJGYGPZNTOPXGV-SSTWWWIQSA-N']
6acetylmorphine_neut->an,9.55,6-acetylmorphine,profiles of drug substances excipiends and related (U),['[H]Oc1c([H])c([H])c2c3c1O[C@]1([H])[C@]34C([H])([H])C([H])([H])N(C([H])([H])[H])[C@]([H])(C2([H])[H])[C@]4([H])C([H])=C([H])[C@]1([H])OC(=O)C([H])([H])[H]'],['[#8]1-[#6@@]2(-[#6@]34-[#6@](-[#6@](-[#7](-[#6@](-[#6@@]-3(-[H])-[H])(-[H])-[H])-[#6@](-[H])(-[H])-[H])(-[#6@](-[#6]3:[#6]-4:[#6]-1:[#6](-[#8]-[H]):[#6](:[#6]:3-[H])-[H])(-[H])-[H])-[H])(-[#6](=[#6](-[#6@@]-2(-[#8]-[#6](=[#8])-[#6@](-[H])(-[H])-[H])-[H])-[H])-[H])-[H])-[H]'],"['InChI=1S/C19H21NO4/c1-10(21)23-15-6-4-12-13-9-11-3-5-14(22)17-16(11)19(12,18(15)24-17)7-8-20(13)2/h3-6,12-13,15,18,22H,7-9H2,1-2H3/t12-,13+,15-,18-,19-/m0/s1']",['JJGYGPZNTOPXGV-SSTWWWIQSA-N']
proflavine_2cation->cation,0.3,proflavine,profiles of drug substances excipiends and related (U),['[H]c1c(N([H])[H])c([H])c2nc3c([H])c(N([H])[H])c([H])c([H])c3c([H])c2c1[H]'],['[#7]1:[#6]2:[#6](:[#6](:[#6]3:[#6]:1:[#6](:[#6](-[#7](-[H])-[H]):[#6](:[#6]:3-[H])-[H])-[H])-[H]):[#6](:[#6](:[#6](-[#7](-[H])-[H]):[#6]:2-[H])-[H])-[H]'],"['InChI=1S/C13H11N3/c14-10-3-1-8-5-9-2-4-11(15)7-13(9)16-12(8)6-10/h1-7H,14-15H2']",['WDVSHHCDHLJJJR-UHFFFAOYSA-N']
proflavine_cation->neut,9.65,proflavine,"A. Albert. The Acridines, p. 114, Edward Arnold and Co., London (1951).",['[H]c1c(N([H])[H])c([H])c2nc3c([H])c(N([H])[H])c([H])c([H])c3c([H])c2c1[H]'],['[#7]1:[#6]2:[#6](:[#6](:[#6]3:[#6]:1:[#6](:[#6](-[#7](-[H])-[H]):[#6](:[#6]:3-[H])-[H])-[H])-[H]):[#6](:[#6](:[#6](-[#7](-[H])-[H]):[#6]:2-[H])-[H])-[H]'],"['InChI=1S/C13H11N3/c14-10-3-1-8-5-9-2-4-11(15)7-13(9)16-12(8)6-10/h1-7H,14-15H2']",['WDVSHHCDHLJJJR-UHFFFAOYSA-N']
aminoacridineyellow_2cation->cation,0.5,acridine yellow,profiles of drug substances excipiends and related (U),['[H]c1c(N([H])[H])c(C([H])([H])[H])c([H])c2c([H])c3c([H])c(C([H])([H])[H])c(N([H])[H])c([H])c3nc12'],['[#7]1:[#6]2:[#6](:[#6](:[#6]3:[#6]:1:[#6](:[#6](-[#7](-[H])-[H]):[#6](:[#6]:3-[H])-[#6@@](-[H])(-[H])-[H])-[H])-[H]):[#6](:[#6](:[#6](-[#7](-[H])-[H]):[#6]:2-[H])-[#6@@](-[H])(-[H])-[H])-[H]'],"['InChI=1S/C15H15N3/c1-8-3-10-5-11-4-9(2)13(17)7-15(11)18-14(10)6-12(8)16/h3-7H,16-17H2,1-2H3']",['HGHJYCKSBMCGRK-UHFFFAOYSA-N']
aminoacridineyellow_cation->neut,8.9,acridine yellow,profiles of drug substances excipiends and related (U),['[H]c1c(N([H])[H])c(C([H])([H])[H])c([H])c2c([H])c3c([H])c(C([H])([H])[H])c(N([H])[H])c([H])c3nc12'],['[#7]1:[#6]2:[#6](:[#6](:[#6]3:[#6]:1:[#6](:[#6](-[#7](-[H])-[H]):[#6](:[#6]:3-[H])-[#6@@](-[H])(-[H])-[H])-[H])-[H]):[#6](:[#6](:[#6](-[#7](-[H])-[H]):[#6]:2-[H])-[#6@@](-[H])(-[H])-[H])-[H]'],"['InChI=1S/C15H15N3/c1-8-3-10-5-11-4-9(2)13(17)7-15(11)18-14(10)6-12(8)16/h3-7H,16-17H2,1-2H3']",['HGHJYCKSBMCGRK-UHFFFAOYSA-N']
amantadine_cation->neut,10.71,amantadine,profiles of drug substances excipiends and related (A),['[H]N([H])[C@]12C([H])([H])[C@@]3([H])C([H])([H])[C@]([H])(C([H])([H])[C@]([H])(C3([H])[H])C1([H])[H])C2([H])[H]'],['[#7](-[#6@@]12-[#6@](-[#6@]3(-[#6@@](-[#6@@](-[#6@@]-1(-[H])-[H])(-[#6@@](-[#6@@](-[#6@@]-2(-[H])-[H])(-[#6@]-3(-[H])-[H])-[H])(-[H])-[H])-[H])(-[H])-[H])-[H])(-[H])-[H])(-[H])-[H]'],"['InChI=1S/C10H17N/c11-10-4-7-1-8(5-10)3-9(2-7)6-10/h7-9H,1-6,11H2/t7-,8+,9-,10-']",['DKNWSYNQZKUICI-CHIWXEEVSA-N']
amiloride_cation->neut,8.7,amiloride,profiles of drug substances excipiends and related (U),['[H]N([H])C(=NC(=O)c1nc(Cl)c(N([H])[H])nc1N([H])[H])N([H])[H]'],['[#17]-[#6]1:[#7]:[#6](:[#6](:[#7]:[#6]:1-[#7](-[H])-[H])-[#7](-[H])-[H])-[#6](=[#8])-[#7]=[#6](-[#7](-[H])-[H])-[#7](-[H])-[H]'],"['InChI=1S/C6H8ClN7O/c7-2-4(9)13-3(8)1(12-2)5(15)14-6(10)11/h(H4,8,9,13)(H4,10,11,14,15)']",['XSDQTOBWRPYKKA-UHFFFAOYSA-N']
6aminopenicillanic_cation->neut,2.3,6-aminopenicillanic acid ,profiles of drug substances excipiends and related (A),['[H]C([H])([H])C1(C([H])([H])[H])S[C@@]2([H])N(C(=O)[C@@]2([H])[N+]([H])([H])[H])[C@@]1([H])C(=O)[O-]'],['[#16]1-[#6@]2(-[#7](-[#6@](-[#6@]-1(-[#6@@](-[H])(-[H])-[H])-[#6@@](-[H])(-[H])-[H])(-[#6](=[#8])-[#8-])-[H])-[#6](=[#8])-[#6@]-2(-[#7@+](-[H])(-[H])-[H])-[H])-[H]'],"['InChI=1S/C8H12N2O3S/c1-8(2)4(7(12)13)10-5(11)3(9)6(10)14-8/h3-4,6H,9H2,1-2H3,(H,12,13)/t3-,4+,6-/m1/s1']",['NGHVIOIJCVXTGV-ALEPSDHESA-N']
6aminopenicillanic_neut->an,4.9,6-aminopenicillanic acid ,profiles of drug substances excipiends and related (A),['[H]C([H])([H])C1(C([H])([H])[H])S[C@@]2([H])N(C(=O)[C@@]2([H])[N+]([H])([H])[H])[C@@]1([H])C(=O)[O-]'],['[#16]1-[#6@]2(-[#7](-[#6@](-[#6@]-1(-[#6@@](-[H])(-[H])-[H])-[#6@@](-[H])(-[H])-[H])(-[#6](=[#8])-[#8-])-[H])-[#6](=[#8])-[#6@]-2(-[#7@+](-[H])(-[H])-[H])-[H])-[H]'],"['InChI=1S/C8H12N2O3S/c1-8(2)4(7(12)13)10-5(11)3(9)6(10)14-8/h3-4,6H,9H2,1-2H3,(H,12,13)/t3-,4+,6-/m1/s1']",['NGHVIOIJCVXTGV-ALEPSDHESA-N']
aminopyrine_cation->neut,5.06,aminopyrine,profiles of drug substances excipiends and related (A),['[H]c1c([H])c([H])c(-n2c(=O)c(N(C([H])([H])[H])C([H])([H])[H])c(C([H])([H])[H])n2C([H])([H])[H])c([H])c1[H]'],['[#8]=[#6]1:[#7](:[#7](:[#6](:[#6]:1-[#7](-[#6@](-[H])(-[H])-[H])-[#6@](-[H])(-[H])-[H])-[#6@](-[H])(-[H])-[H])-[#6@](-[H])(-[H])-[H])-[#6]1:[#6](:[#6](:[#6](:[#6](:[#6]:1-[H])-[H])-[H])-[H])-[H]'],"['InChI=1S/C13H17N3O/c1-10-12(14(2)3)13(17)16(15(10)4)11-8-6-5-7-9-11/h5-9H,1-4H3']",['RMMXTBMQSGEXHJ-UHFFFAOYSA-N']
5aminosalicylic_an->2an,13.9,5-aminosalicylic acid,profiles of drug substances excipiends and related (U),"['[H]Oc1c([H])c([H])c([N+]([H])([H])[H])c([H])c1C(=O)[O-]', '[H]OC(=O)c1c([H])c(N([H])[H])c([H])c([H])c1O[H]']","['[#8](-[#6]1:[#6](:[#6](:[#6](-[#7@+](-[H])(-[H])-[H]):[#6](:[#6]:1-[H])-[H])-[H])-[#6](=[#8])-[#8-])-[H]', '[#8](-[#6]1:[#6](:[#6](:[#6](-[#7](-[H])-[H]):[#6](:[#6]:1-[H])-[H])-[H])-[#6](-[#8]-[H])=[#8])-[H]']","['InChI=1S/C7H7NO3/c8-4-1-2-6(9)5(3-4)7(10)11/h1-3,9H,8H2,(H,10,11)']",['KBOPZPXVLCULAV-UHFFFAOYSA-N']
amphetamine_cation->neut,9.94,amphetamine,profiles of drug substances excipiends and related (A),['[H]c1c([H])c([H])c(C([H])([H])[C@@]([H])(N([H])[H])C([H])([H])[H])c([H])c1[H]'],['[#7](-[#6@](-[#6@](-[#6]1:[#6](:[#6](:[#6](:[#6](:[#6]:1-[H])-[H])-[H])-[H])-[H])(-[H])-[H])(-[#6@](-[H])(-[H])-[H])-[H])(-[H])-[H]'],"['InChI=1S/C9H13N/c1-8(10)7-9-5-3-2-4-6-9/h2-6,8H,7,10H2,1H3/t8-/m0/s1']",['KWTSXDURSIMDCE-QMMMGPOBSA-N']
4methoxyamphetamine_cation->neut,9.99,4-methoxy-amphetamine,profiles of drug substances excipiends and related (A),['[H]c1c([H])c(C([H])([H])[C@@]([H])(N([H])[H])C([H])([H])[H])c([H])c([H])c1OC([H])([H])[H]'],['[#7](-[#6@](-[#6@](-[#6]1:[#6](:[#6](:[#6](:[#6](:[#6]:1-[H])-[H])-[#8]-[#6@@](-[H])(-[H])-[H])-[H])-[H])(-[H])-[H])(-[#6@](-[H])(-[H])-[H])-[H])(-[H])-[H]'],"['InChI=1S/C10H15NO/c1-8(11)7-9-3-5-10(12-2)6-4-9/h3-6,8H,7,11H2,1-2H3/t8-/m0/s1']",['NEGYEDYHPHMHGK-QMMMGPOBSA-N']
anagrelide_cation->neut,2.87,anagrelide,profiles of drug substances excipiends and related (U),"['[H]c1c([H])c2c(c(Cl)c1Cl)C([H])([H])N1C(=NC(=O)C1([H])[H])N2[H]', '[H]c1c([H])c2c(c(Cl)c1Cl)C([H])([H])N1C(=N2)N([H])C(=O)C1([H])[H]']","['[#17]-[#6]1:[#6]2-[#6@@](-[#7]3-[#6@](-[#6](=[#8])-[#7]=[#6]-3-[#7](-[#6]:2:[#6](:[#6](:[#6]:1-[#17])-[H])-[H])-[H])(-[H])-[H])(-[H])-[H]', '[#17]-[#6]1:[#6]2-[#6@@](-[#7]3-[#6@](-[#6](=[#8])-[#7](-[#6]-3=[#7]-[#6]:2:[#6](:[#6](:[#6]:1-[#17])-[H])-[H])-[H])(-[H])-[H])(-[H])-[H]']","['InChI=1S/C10H7Cl2N3O/c11-6-1-2-7-5(9(6)12)3-15-4-8(16)14-10(15)13-7/h1-2H,3-4H2,(H,13,14,16)']",['OTBXOEAOVRKTNQ-UHFFFAOYSA-N']
anagrelide_neut->an,10,anagrelide,profiles of drug substances excipiends and related (U),"['[H]c1c([H])c2c(c(Cl)c1Cl)C([H])([H])N1C(=NC(=O)C1([H])[H])N2[H]', '[H]c1c([H])c2c(c(Cl)c1Cl)C([H])([H])N1C(=N2)N([H])C(=O)C1([H])[H]']","['[#17]-[#6]1:[#6]2-[#6@@](-[#7]3-[#6@](-[#6](=[#8])-[#7]=[#6]-3-[#7](-[#6]:2:[#6](:[#6](:[#6]:1-[#17])-[H])-[H])-[H])(-[H])-[H])(-[H])-[H]', '[#17]-[#6]1:[#6]2-[#6@@](-[#7]3-[#6@](-[#6](=[#8])-[#7](-[#6]-3=[#7]-[#6]:2:[#6](:[#6](:[#6]:1-[#17])-[H])-[H])-[H])(-[H])-[H])(-[H])-[H]']","['InChI=1S/C10H7Cl2N3O/c11-6-1-2-7-5(9(6)12)3-15-4-8(16)14-10(15)13-7/h1-2H,3-4H2,(H,13,14,16)']",['OTBXOEAOVRKTNQ-UHFFFAOYSA-N']
arecaidine_neut->an,9.07,arecaidine,profiles of drug substances excipiends and related (A),['[H]C1=C(C(=O)[O-])C([H])([H])[N@@+]([H])(C([H])([H])[H])C([H])([H])C1([H])[H]'],['[#8]=[#6](-[#8-])-[#6]1-[#6@@](-[#7@+](-[#6@](-[#6@](-[#6]=1-[H])(-[H])-[H])(-[H])-[H])(-[#6@](-[H])(-[H])-[H])-[H])(-[H])-[H]'],"['InChI=1S/C7H11NO2/c1-8-4-2-3-6(5-8)7(9)10/h3H,2,4-5H2,1H3,(H,9,10)']",['DNJFTXKSFAMXQF-UHFFFAOYSA-N']
arecaidinemethylester_cation->neut,7.64,arecaidine methyl ester,profiles of drug substances excipiends and related (A),['[H]C1=C(C(=O)OC([H])([H])[H])C([H])([H])N(C([H])([H])[H])C([H])([H])C1([H])[H]'],['[#8](-[#6](=[#8])-[#6]1-[#6@@](-[#7](-[#6@](-[#6@](-[#6]=1-[H])(-[H])-[H])(-[H])-[H])-[#6@](-[H])(-[H])-[H])(-[H])-[H])-[#6@](-[H])(-[H])-[H]'],"['InChI=1S/C8H13NO2/c1-9-5-3-4-7(6-9)8(10)11-2/h4H,3,5-6H2,1-2H3']",['HJJPJSXJAXAIPN-UHFFFAOYSA-N']
1phenylpiperazine_cation->neut,9.02,1-phenylpiperazine,profiles of drug substances excipiends and related (U),['[H]c1c([H])c([H])c(N2C([H])([H])C([H])([H])N([H])C([H])([H])C2([H])[H])c([H])c1[H]'],['[#7]1(-[#6@](-[#6@@](-[#7](-[#6@](-[#6@@]-1(-[H])-[H])(-[H])-[H])-[H])(-[H])-[H])(-[H])-[H])-[#6]1:[#6](:[#6](:[#6](:[#6](:[#6]:1-[H])-[H])-[H])-[H])-[H]'],"['InChI=1S/C10H14N2/c1-2-4-10(5-3-1)12-8-6-11-7-9-12/h1-5,11H,6-9H2']",['YZTJYBJCZXZGCT-UHFFFAOYSA-N']