compn,pKa,correct name,reference,smiles,smarts,inchi,inchiKey
succinamic_neut->an,4.39,succinamic acid,Lange's handbook of chemistry,['[H]OC(=O)C([H])([H])C([H])([H])C(=O)N([H])[H]'],['[#8](-[#6](=[#8])-[#6@](-[#6@](-[#6](=[#8])-[#7](-[H])-[H])(-[H])-[H])(-[H])-[H])-[H]'],"['InChI=1S/C4H7NO3/c5-3(6)1-2-4(7)8/h1-2H2,(H2,5,6)(H,7,8)']",['JDVPQXZIJDEHAN-UHFFFAOYSA-N']
succinic_neut->an,4.21,succinic acid,profiles of drug substances excipiends and related (R),['[H]OC(=O)C([H])([H])C([H])([H])C(=O)O[H]'],['[#6](=[#8])(-[#6@@](-[H])(-[H])-[#6@@](-[H])(-[H])-[#6](=[#8])-[#8]-[H])-[#8]-[H]'],"['InChI=1S/C4H6O4/c5-3(6)1-2-4(7)8/h1-2H2,(H,5,6)(H,7,8)']",['KDYFGRWQOYBRFD-UHFFFAOYSA-N']
succinic_an->2an,5.64,succinic acid,profiles of drug substances excipiends and related (R),['[H]OC(=O)C([H])([H])C([H])([H])C(=O)O[H]'],['[#6](=[#8])(-[#6@@](-[H])(-[H])-[#6@@](-[H])(-[H])-[#6](=[#8])-[#8]-[H])-[#8]-[H]'],"['InChI=1S/C4H6O4/c5-3(6)1-2-4(7)8/h1-2H2,(H,5,6)(H,7,8)']",['KDYFGRWQOYBRFD-UHFFFAOYSA-N']
succinimide_neut->an,9.62,maleinimide,Lange's handbook of chemistry,['[H]C1=C([H])C(=O)N([H])C1=O'],['[#6]1(-[#7](-[#6](=[#8])-[#6](=[#6]-1-[H])-[H])-[H])=[#8]'],"['InChI=1S/C4H3NO2/c6-3-1-2-4(7)5-3/h1-2H,(H,5,6,7)']",['PEEHTFAAVSWFBL-UHFFFAOYSA-N']
sulfoacetic_an->2an,4,2-sulfoacetic acid,Lange's handbook of chemistry,['[H]OC(=O)C([H])([H])S(=O)(=O)[O-]'],['[#8]=[#16@@](=[#8])(-[#8-])-[#6@](-[#6](-[#8]-[H])=[#8])(-[H])-[H]'],"['InChI=1S/C2H4O5S/c3-2(4)1-8(5,6)7/h1H2,(H,3,4)(H,5,6,7)/p-1']",['AGGIJOLULBJGTQ-UHFFFAOYSA-M']
tartaric_neut->an,3.03,DL-tartaric acid,profiles of drug substances excipiends and related (R),['[H]OC(=O)[C@]([H])(O[H])[C@]([H])(O[H])C(=O)O[H]'],['[#6](=[#8])(-[#6@](-[H])(-[#6@](-[H])(-[#6](=[#8])-[#8]-[H])-[#8]-[H])-[#8]-[H])-[#8]-[H]'],"['InChI=1S/C4H6O6/c5-1(3(7)8)2(6)4(9)10/h1-2,5-6H,(H,7,8)(H,9,10)/t1-,2+']",['FEWJPZIEWOKRBE-XIXRPRMCSA-N']
tartaric_an->2an,4.37,DL-tartaric acid,profiles of drug substances excipiends and related (R),['[H]OC(=O)[C@]([H])(O[H])[C@]([H])(O[H])C(=O)O[H]'],['[#6](=[#8])(-[#6@](-[H])(-[#6@](-[H])(-[#6](=[#8])-[#8]-[H])-[#8]-[H])-[#8]-[H])-[#8]-[H]'],"['InChI=1S/C4H6O6/c5-1(3(7)8)2(6)4(9)10/h1-2,5-6H,(H,7,8)(H,9,10)/t1-,2+']",['FEWJPZIEWOKRBE-XIXRPRMCSA-N']
taurine_neut->an,9.06,taurine,CRC handbook,['[H]C([H])(C([H])([H])S(=O)(=O)[O-])[N+]([H])([H])[H]'],['[#8]=[#16@](-[#6@@](-[#6@](-[#7@@+](-[H])(-[H])-[H])(-[H])-[H])(-[H])-[H])(=[#8])-[#8-]'],"['InChI=1S/C2H7NO3S/c3-1-2-7(4,5)6/h1-3H2,(H,4,5,6)']",['XOAAWQZATWQOTB-UHFFFAOYSA-N']
tbutylphosphonic_neut->an,2.79,t-butylphosphonic acid,Lange's handbook of chemistry,['[H]OP(=O)(O[H])C(C([H])([H])[H])(C([H])([H])[H])C([H])([H])[H]'],['[#8](-[#15@](-[#8]-[H])(=[#8])-[#6@](-[#6@@](-[H])(-[H])-[H])(-[#6@@](-[H])(-[H])-[H])-[#6@@](-[H])(-[H])-[H])-[H]'],"['InChI=1S/C4H11O3P/c1-4(2,3)8(5,6)7/h1-3H3,(H2,5,6,7)']",['OGDSVONAYZTTDA-UHFFFAOYSA-N']
tbutylphosphonic_an->2an,8.88,t-butylphosphonic acid,Lange's handbook of chemistry,['[H]OP(=O)(O[H])C(C([H])([H])[H])(C([H])([H])[H])C([H])([H])[H]'],['[#8](-[#15@](-[#8]-[H])(=[#8])-[#6@](-[#6@@](-[H])(-[H])-[H])(-[#6@@](-[H])(-[H])-[H])-[#6@@](-[H])(-[H])-[H])-[H]'],"['InChI=1S/C4H11O3P/c1-4(2,3)8(5,6)7/h1-3H3,(H2,5,6,7)']",['OGDSVONAYZTTDA-UHFFFAOYSA-N']
tbutylthiol_neut->an,11.2,tert-butylthiol,Lange's handbook of chemistry,['[H]SC(C([H])([H])[H])(C([H])([H])[H])C([H])([H])[H]'],['[H]-[#6@](-[#6@@](-[#6@@](-[H])(-[H])-[H])(-[#6@@](-[H])(-[H])-[H])-[#16]-[H])(-[H])-[H]'],"['InChI=1S/C4H10S/c1-4(2,3)5/h5H,1-3H3']",['WMXCDAVJEZZYLT-UHFFFAOYSA-N']
tertbutanoic_neut->an,5.03,tert-pentanoic acid,"J. Phys. Chem. A 2008, 112, 775-782.",['[H]OC(=O)C(C([H])([H])[H])(C([H])([H])[H])C([H])([H])[H]'],['[#6](=[#8])(-[#8]-[H])-[#6@@](-[#6@@](-[H])(-[H])-[H])(-[#6@@](-[H])(-[H])-[H])-[#6@@](-[H])(-[H])-[H]'],"['InChI=1S/C5H10O2/c1-5(2,3)4(6)7/h1-3H3,(H,6,7)']",['IUGYQRQAERSCNH-UHFFFAOYSA-N']
tertbutanol_neut->an,16,tertbutanol,DOI: 10.1021/acs.jpca.7b03907,['[H]OC(C([H])([H])[H])(C([H])([H])[H])C([H])([H])[H]'],['[H]-[#6@](-[#6@@](-[#6@@](-[H])(-[H])-[H])(-[#6@@](-[H])(-[H])-[H])-[#8]-[H])(-[H])-[H]'],"['InChI=1S/C4H10O/c1-4(2,3)5/h5H,1-3H3']",['DKGAVHZHDRPRBM-UHFFFAOYSA-N']
tertbutylamine_cation->neut,10.69,tertbutylamine,Lange's handbook of chemistry,['[H]N([H])C(C([H])([H])[H])(C([H])([H])[H])C([H])([H])[H]'],['[#7](-[#6@@](-[#6@@](-[H])(-[H])-[H])(-[#6@@](-[H])(-[H])-[H])-[#6@@](-[H])(-[H])-[H])(-[H])-[H]'],"['InChI=1S/C4H11N/c1-4(2,3)5/h5H2,1-3H3']",['YBRBMKDOPFTVDT-UHFFFAOYSA-N']
tertbutylaniline_cation->neut,7.1,tert-butylaniline,Lange's handbook of chemistry,['[H]c1c([H])c([H])c(N([H])C(C([H])([H])[H])(C([H])([H])[H])C([H])([H])[H])c([H])c1[H]'],['[#6]1(:[#6](:[#6](:[#6](:[#6](:[#6]:1-[H])-[H])-[H])-[#7](-[#6@@](-[#6@@](-[H])(-[H])-[H])(-[#6@@](-[H])(-[H])-[H])-[#6@@](-[H])(-[H])-[H])-[H])-[H])-[H]'],"['InChI=1S/C10H15N/c1-10(2,3)11-9-7-5-4-6-8-9/h4-8,11H,1-3H3']",['ABRWESLGGMHKEA-UHFFFAOYSA-N']
tertbutyldimethylamine_cation->neut,10.52,tert-butyldimethylamine,10.1002/jcc.23068,['[H]C([H])([H])N(C([H])([H])[H])C(C([H])([H])[H])(C([H])([H])[H])C([H])([H])[H]'],['[H]-[#6@](-[#6@](-[#6@@](-[H])(-[H])-[H])(-[#6@@](-[H])(-[H])-[H])-[#7](-[#6@@](-[H])(-[H])-[H])-[#6@@](-[H])(-[H])-[H])(-[H])-[H]'],"['InChI=1S/C6H15N/c1-6(2,3)7(4)5/h1-5H3']",['OXQMIXBVXHWDPX-UHFFFAOYSA-N']
tertbutylhydroperoxide_neut->an,12.8,tert butylhydroperoxide,Lange's handbook of chemistry,['[H]OOC(C([H])([H])[H])(C([H])([H])[H])C([H])([H])[H]'],['[#8](-[#8]-[H])-[#6@@](-[#6@@](-[H])(-[H])-[H])(-[#6@](-[H])(-[H])-[H])-[#6@@](-[H])(-[H])-[H]'],"['InChI=1S/C4H10O2/c1-4(2,3)6-5/h5H,1-3H3']",['CIHOLLKRGTVIJN-UHFFFAOYSA-N']
tetrahydroisoquinoline_cation->neut,9.41,tetrahydroisoquinoline,10.1002/jcc.23068,['[H]c1c([H])c([H])c2c(c1[H])C([H])([H])N([H])C([H])([H])C2([H])[H]'],['[H]-[#6@@]1(-[H])-[#6]2:[#6](-[#6@@](-[#6@@](-[H])(-[H])-[#7]-1-[H])(-[H])-[H]):[#6](:[#6](:[#6](:[#6]:2-[H])-[H])-[H])-[H]'],"['InChI=1S/C9H11N/c1-2-4-9-7-10-6-5-8(9)3-1/h1-4,10H,5-7H2']",['UWYZHKAOTLEWKK-UHFFFAOYSA-N']
tetrahydroquinazoline_cation->neut,7.63,tetrahydroquinazoline,10.1002/jcc.23068,['[H]c1c([H])c([H])c2c(c1[H])N([H])C([H])([H])N([H])C2([H])[H]'],['[H]-[#7]1-[#6@](-[H])(-[H])-[#7](-[#6@](-[H])(-[H])-[#6]2:[#6](:[#6](:[#6](:[#6](:[#6]:2-1)-[H])-[H])-[H])-[H])-[H]'],"['InChI=1S/C8H10N2/c1-2-4-8-7(3-1)5-9-6-10-8/h1-4,9-10H,5-6H2']",['PKORYTIUMAOPED-UHFFFAOYSA-N']
tetrahydroquinoline_cation->neut,5.03,tetrahydroquinoline,10.1002/jcc.23068,['[H]c1c([H])c([H])c2c(c1[H])N([H])C([H])([H])C([H])([H])C2([H])[H]'],['[H]-[#7]1-[#6@](-[#6@](-[#6@](-[H])(-[H])-[#6]2:[#6](:[#6](:[#6](:[#6](:[#6]:2-1)-[H])-[H])-[H])-[H])(-[H])-[H])(-[H])-[H]'],"['InChI=1S/C9H11N/c1-2-6-9-8(4-1)5-3-7-10-9/h1-2,4,6,10H,3,5,7H2']",['LBUJPTNKIBCYBY-UHFFFAOYSA-N']
tetrahydroquinoxaline_cation->neut,4.48,tetrahydroquinoxaline,10.1002/jcc.23068,['[H]c1c([H])c([H])c2c(c1[H])N([H])C([H])([H])C([H])([H])N2[H]'],['[H]-[#7]1-[#6@](-[#6@](-[H])(-[H])-[#7](-[H])-[#6]2:[#6](:[#6](:[#6](:[#6](:[#6]:2-1)-[H])-[H])-[H])-[H])(-[H])-[H]'],"['InChI=1S/C8H10N2/c1-2-4-8-7(3-1)9-5-6-10-8/h1-4,9-10H,5-6H2']",['HORKYAIEVBUXGM-UHFFFAOYSA-N']
tetramethylbenzoic_neut->an,3.42,"2,5,6-tetramethylbenzoic acid",Lange's handbook of chemistry,['[H]OC(=O)c1c(C([H])([H])[H])c(C([H])([H])[H])c([H])c(C([H])([H])[H])c1C([H])([H])[H]'],['[#6]1(:[#6](:[#6](:[#6](:[#6](:[#6]:1-[#6@@](-[H])(-[H])-[H])-[#6@@](-[H])(-[H])-[H])-[H])-[#6@@](-[H])(-[H])-[H])-[#6@@](-[H])(-[H])-[H])-[#6](=[#8])-[#8]-[H]'],"['InChI=1S/C11H14O2/c1-6-5-7(2)9(4)10(8(6)3)11(12)13/h5H,1-4H3,(H,12,13)']",['STIDRZRESMTQBD-UHFFFAOYSA-N']
tetramethylethylenediamine_2cation->cation,5.85,"N,N,N',N'-Tetramethylethylenediamine","L. Spialter and R. W. Moshier. J. Am. Chem. Soc. 79, 5955 (1957).",['[H]C([H])([H])N(C([H])([H])[H])C([H])([H])C([H])([H])N(C([H])([H])[H])C([H])([H])[H]'],['[#7](-[#6@@](-[#6@@](-[#7](-[#6@](-[H])(-[H])-[H])-[#6@](-[H])(-[H])-[H])(-[H])-[H])(-[H])-[H])(-[#6@](-[H])(-[H])-[H])-[#6@](-[H])(-[H])-[H]'],"['InChI=1S/C6H16N2/c1-7(2)5-6-8(3)4/h5-6H2,1-4H3']",['KWYHDKDOAIKMQN-UHFFFAOYSA-N']
tetramethylethylenediamine_cation->neut,8.97,"N,N,N',N'-Tetramethylethylenediamine","L. Spialter and R. W. Moshier. J. Am. Chem. Soc. 79, 5955 (1957).",['[H]C([H])([H])N(C([H])([H])[H])C([H])([H])C([H])([H])N(C([H])([H])[H])C([H])([H])[H]'],['[#7](-[#6@@](-[#6@@](-[#7](-[#6@](-[H])(-[H])-[H])-[#6@](-[H])(-[H])-[H])(-[H])-[H])(-[H])-[H])(-[#6@](-[H])(-[H])-[H])-[#6@](-[H])(-[H])-[H]'],"['InChI=1S/C6H16N2/c1-7(2)5-6-8(3)4/h5-6H2,1-4H3']",['KWYHDKDOAIKMQN-UHFFFAOYSA-N']
tetramethylpyrazine_cation->neut,3.6,tetramethylpyrazine,10.1002/jcc.23068,['[H]C([H])([H])c1nc(C([H])([H])[H])c(C([H])([H])[H])nc1C([H])([H])[H]'],['[#6]1(:[#6](:[#7]:[#6](:[#6](:[#7]:1)-[#6@@](-[H])(-[H])-[H])-[#6@@](-[H])(-[H])-[H])-[#6@@](-[H])(-[H])-[H])-[#6@@](-[H])(-[H])-[H]'],['InChI=1S/C8H12N2/c1-5-6(2)10-8(4)7(3)9-5/h1-4H3'],['FINHMKGKINIASC-UHFFFAOYSA-N']
tetramethylpyridine_cation->neut,7.9,"2,3,5,6-tetramethylpyridine",Lange's handbook of chemistry,['[H]c1c(C([H])([H])[H])c(C([H])([H])[H])nc(C([H])([H])[H])c1C([H])([H])[H]'],['[#6]1(:[#6](:[#6](:[#6](:[#6](-[#6@@](-[H])(-[H])-[H]):[#7]:1)-[#6@@](-[H])(-[H])-[H])-[H])-[#6@@](-[H])(-[H])-[H])-[#6@@](-[H])(-[H])-[H]'],"['InChI=1S/C9H13N/c1-6-5-7(2)9(4)10-8(6)3/h5H,1-4H3']",['ZAAVUWIYUMVQJG-UHFFFAOYSA-N']
tetramethylsuccinic_an->2an,7.28,tetramethylsuccinic acid,Lange's handbook of chemistry,['[H]OC(=O)C(C([H])([H])[H])(C([H])([H])[H])C(C(=O)O[H])(C([H])([H])[H])C([H])([H])[H]'],['[#8](-[#6](=[#8])-[#6@@](-[#6@](-[#6@@](-[H])(-[H])-[H])(-[#6@@](-[H])(-[H])-[H])-[#6](-[#8]-[H])=[#8])(-[#6@@](-[H])(-[H])-[H])-[#6@@](-[H])(-[H])-[H])-[H]'],"['InChI=1S/C8H14O4/c1-7(2,5(9)10)8(3,4)6(11)12/h1-4H3,(H,9,10)(H,11,12)']",['CDPPYCZVWYZBJH-UHFFFAOYSA-N']
tetramethylsuccinic_neut->an,3.5,tetramethylsuccinic acid,Lange's handbook of chemistry,['[H]OC(=O)C(C([H])([H])[H])(C([H])([H])[H])C(C(=O)O[H])(C([H])([H])[H])C([H])([H])[H]'],['[#8](-[#6](=[#8])-[#6@@](-[#6@](-[#6@@](-[H])(-[H])-[H])(-[#6@@](-[H])(-[H])-[H])-[#6](-[#8]-[H])=[#8])(-[#6@@](-[H])(-[H])-[H])-[#6@@](-[H])(-[H])-[H])-[H]'],"['InChI=1S/C8H14O4/c1-7(2,5(9)10)8(3,4)6(11)12/h1-4H3,(H,9,10)(H,11,12)']",['CDPPYCZVWYZBJH-UHFFFAOYSA-N']
tetrazole_neut->an,4.86,tetrazole,doi:10.1016/j.theochem.2003.10.019,"['[H]c1nnn([H])n1', '[H]c1nnnn1[H]']","['[#7]1:[#6](:[#7]:[#7](:[#7]:1)-[H])-[H]', '[#1]-[#7]1:[#6](:[#7]:[#7]:[#7]:1)-[H]']","['InChI=1S/CH2N4/c1-2-4-5-3-1/h1H,(H,2,3,4,5)']",['KJUGUADJHNHALS-UHFFFAOYSA-N']
tetrolic_neut->an,2.62,tetrolic acid,Lange's handbook of chemistry,['[H]OC(=O)C#CC([H])([H])[H]'],['[#6](=[#8])(-[#8]-[H])-[#6]#[#6]-[#6@@](-[H])(-[H])-[H]'],"['InChI=1S/C4H4O2/c1-2-3-4(5)6/h1H3,(H,5,6)']",['LUEHNHVFDCZTGL-UHFFFAOYSA-N']
tetronic_neut->an,3.76,4-Hydroxyfuran-2(5H)-one,"G. KORTUM, W. VOGEL and K. ANDRUSSOW, DISSOCIATION CONSTANTS OF ORGANIC ACIDS IN AQUEOUS SOLUTION ","['[H]OC1=C([H])C(=O)OC1([H])[H]', '[H]OC1=C([H])C(=O)C([H])([H])O1']","['[H]-[#6@@]1(-[H])-[#6](=[#6](-[H])-[#6](-[#8]-1)=[#8])-[#8]-[H]', '[H]-[#6@@]1(-[H])-[#6](-[#6](-[H])=[#6](-[#8]-1)-[#8]-[H])=[#8]']","['InChI=1S/C4H4O3/c5-3-1-4(6)7-2-3/h1,5H,2H2', 'InChI=1S/C4H4O3/c5-3-1-4(6)7-2-3/h1,6H,2H2']","['JZQBAGOECGRTSA-UHFFFAOYSA-N', 'YQCKTPIJASVZFF-UHFFFAOYSA-N']"
thebaine_cation->neut,7.95,thebaine,Lange's handbook of chemistry,['[H]C1=C(OC([H])([H])[H])[C@]2([H])Oc3c(OC([H])([H])[H])c([H])c([H])c4c3[C@]23C(=C1[H])[C@]([H])(N(C([H])([H])[H])C([H])([H])C3([H])[H])C4([H])[H]'],['[#8]1-[#6@@]2(-[#6@]34-[#6](-[#6@](-[#7](-[#6@](-[#6@@]-3(-[H])-[H])(-[H])-[H])-[#6@](-[H])(-[H])-[H])(-[#6@](-[#6]3:[#6]-4:[#6]-1:[#6](-[#8]-[#6@](-[H])(-[H])-[H]):[#6](:[#6]:3-[H])-[H])(-[H])-[H])-[H])=[#6](-[#6](=[#6]-2-[#8]-[#6@](-[H])(-[H])-[H])-[H])-[H])-[H]'],"['InChI=1S/C19H21NO3/c1-20-9-8-19-12-5-7-15(22-3)18(19)23-17-14(21-2)6-4-11(16(17)19)10-13(12)20/h4-7,13,18H,8-10H2,1-3H3/t13-,18+,19+/m1/s1']",['FQXXSQDCDRQNQE-VMDGZTHMSA-N']
theobromine_cation->neut,0.68,theobromine,Lange's handbook of chemistry,"['[H]c1nc2c(c(=O)n([H])c(=O)n2C([H])([H])[H])n1C([H])([H])[H]', '[H]c1n([H])c2c(c([O-])nc(=O)n2C([H])([H])[H])[n+]1C([H])([H])[H]']","['[#6]12:[#6](:[#7]:[#6](:[#7]:1-[#6@@](-[H])(-[H])-[H])-[H]):[#7](:[#6](=[#8]):[#7](:[#6]:2=[#8])-[H])-[#6@@](-[H])(-[H])-[H]', '[#6]12:[#6](:[#7](:[#6](:[#7+]:1-[#6@@](-[H])(-[H])-[H])-[H])-[H]):[#7](:[#6](=[#8]):[#7]:[#6]:2-[#8-])-[#6@@](-[H])(-[H])-[H]']","['InChI=1S/C7H8N4O2/c1-10-3-8-5-4(10)6(12)9-7(13)11(5)2/h3H,1-2H3,(H,9,12,13)']",['YAPQBXQYLJRXSA-UHFFFAOYSA-N']
theobromine_neut->an,9.97,theobromine,"G. KORTUM, W. VOGEL and K. ANDRUSSOW, DISSOCIATION CONSTANTS OF ORGANIC ACIDS IN AQUEOUS SOLUTION ","['[H]c1nc2c(c(=O)n([H])c(=O)n2C([H])([H])[H])n1C([H])([H])[H]', '[H]c1n([H])c2c(c([O-])nc(=O)n2C([H])([H])[H])[n+]1C([H])([H])[H]']","['[#6]12:[#6](:[#7]:[#6](:[#7]:1-[#6@@](-[H])(-[H])-[H])-[H]):[#7](:[#6](=[#8]):[#7](:[#6]:2=[#8])-[H])-[#6@@](-[H])(-[H])-[H]', '[#6]12:[#6](:[#7](:[#6](:[#7+]:1-[#6@@](-[H])(-[H])-[H])-[H])-[H]):[#7](:[#6](=[#8]):[#7]:[#6]:2-[#8-])-[#6@@](-[H])(-[H])-[H]']","['InChI=1S/C7H8N4O2/c1-10-3-8-5-4(10)6(12)9-7(13)11(5)2/h3H,1-2H3,(H,9,12,13)']",['YAPQBXQYLJRXSA-UHFFFAOYSA-N']
theophilline_neut->an,8.55,theophylline,profiles of drug substances excipiends and related (A),"['[H]c1nc2c(=O)n(C([H])([H])[H])c(=O)n(C([H])([H])[H])c2n1[H]', '[H]c1nc2c(c(=O)n(C([H])([H])[H])c(=O)n2C([H])([H])[H])n1[H]']","['[#6]12:[#6](:[#7](:[#6](:[#7]:1)-[H])-[H]):[#7](:[#6](=[#8]):[#7](:[#6]:2=[#8])-[#6@@](-[H])(-[H])-[H])-[#6@@](-[H])(-[H])-[H]', '[#6]12:[#6](:[#7]:[#6](:[#7]:1-[H])-[H]):[#7](:[#6](=[#8]):[#7](:[#6]:2=[#8])-[#6@@](-[H])(-[H])-[H])-[#6@@](-[H])(-[H])-[H]']","['InChI=1S/C7H8N4O2/c1-10-5-4(8-3-9-5)6(12)11(2)7(10)13/h3H,1-2H3,(H,8,9)']",['ZFXYFBGIUFBOJW-UHFFFAOYSA-N']
thiabendazole_cation->neut,4.64,thiabendazole,doi.org/10.1007/s00894-018-3892-4,['[H]c1nc(-c2nc3c([H])c([H])c([H])c([H])c3n2[H])c([H])s1'],['[#6]12:[#6](:[#6](:[#6](:[#6](:[#6]:1-[H])-[H])-[H])-[H]):[#7](:[#6](-[#6]1:[#6](:[#16]:[#6](:[#7]:1)-[H])-[H]):[#7]:2)-[H]'],"['InChI=1S/C10H7N3S/c1-2-4-8-7(3-1)12-10(13-8)9-5-14-6-11-9/h1-6H,(H,12,13)']",['WJCNZQLZVWNLKY-UHFFFAOYSA-N']
thioacetic_neut->an,3.33,thioacetic acid,Lange's handbook of chemistry,['[H]/[S+]=C(\\[O-])C([H])([H])[H]'],['[#16](=[#6](\\[#8-])-[#6@@](-[H])(-[H])-[H])\\[H]'],"['InChI=1S/C2H4OS/c1-2(3)4/h1H3,(H,3,4)']",['DUYAAUVXQSMXQP-UHFFFAOYSA-N']
thiocyanatoacetic_neut->an,2.58,thiocyanatoacetic acid,Lange's handbook of chemistry,['[H]OC(=O)C([H])([H])SC#N'],['[#16](-[#6@](-[#6](-[#8]-[H])=[#8])(-[H])-[H])-[#6]#[#7]'],"['InChI=1S/C3H3NO2S/c4-2-7-1-3(5)6/h1H2,(H,5,6)']",['WYAUHKUSKIIGEI-UHFFFAOYSA-N']
thiodiacetic_an->2an,4.29,thiodiacetic acid,Lange's handbook of chemistry,['[H]OC(=O)C([H])([H])SC([H])([H])C(=O)O[H]'],['[#16](-[#6@](-[#6](-[#8]-[H])=[#8])(-[H])-[H])-[#6@](-[#6](-[#8]-[H])=[#8])(-[H])-[H]'],"['InChI=1S/C4H6O4S/c5-3(6)1-9-2-4(7)8/h1-2H2,(H,5,6)(H,7,8)']",['UVZICZIVKIMRNE-UHFFFAOYSA-N']
thiodiacetic_neut->an,3.32,thiodiacetic acid,Lange's handbook of chemistry,['[H]OC(=O)C([H])([H])SC([H])([H])C(=O)O[H]'],['[#16](-[#6@](-[#6](-[#8]-[H])=[#8])(-[H])-[H])-[#6@](-[#6](-[#8]-[H])=[#8])(-[H])-[H]'],"['InChI=1S/C4H6O4S/c5-3(6)1-9-2-4(7)8/h1-2H2,(H,5,6)(H,7,8)']",['UVZICZIVKIMRNE-UHFFFAOYSA-N']
thiophenol_neut->an,6.5,thiophenol,Lange's handbook of chemistry,['[H]Sc1c([H])c([H])c([H])c([H])c1[H]'],['[#6]1(:[#6](:[#6](:[#6](:[#6](:[#6]:1-[H])-[H])-[H])-[#16]-[H])-[H])-[H]'],"['InChI=1S/C6H6S/c7-6-4-2-1-3-5-6/h1-5,7H']",['RMVRSNDYEFQCLF-UHFFFAOYSA-N']
thiosemicarbazide_cation->neut,1.5,thiosemicarbazide,Lange's handbook of chemistry,['[H]N([H])C(=S)N([H])N([H])[H]'],['[#6](-[#7](-[H])-[H])(-[#7](-[H])-[#7](-[H])-[H])=[#16]'],"['InChI=1S/CH5N3S/c2-1(5)4-3/h3H2,(H3,2,4,5)']",['BRWIZMBXBAOCCF-UHFFFAOYSA-N']
thiourea_cation->neut,-1.58,thiourea,10.1002/zaac.200500157 ,['[H]N([H])C(=S)N([H])[H]'],['[#16]=[#6](-[#7](-[H])-[H])-[#7](-[H])-[H]'],"['InChI=1S/CH4N2S/c2-1(3)4/h(H4,2,3,4)']",['UMGDCJDMYOKAJW-UHFFFAOYSA-N']
threonine_cation->neut,2.09,threonine,Lange's handbook of chemistry,['[H]O[C@]([H])(C([H])([H])[H])[C@@]([H])(C(=O)[O-])[N+]([H])([H])[H]'],['[H]-[#7@@](-[H])(-[H])-[#6@](-[#6](=[#8])-[#8-])(-[#6@](-[#6@](-[H])(-[H])-[H])(-[H])-[#8]-[H])-[H]'],"['InChI=1S/C4H9NO3/c1-2(6)3(5)4(7)8/h2-3,6H,5H2,1H3,(H,7,8)/t2-,3+/m1/s1']",['AYFVYJQAPQTCCC-GBXIJSLDSA-N']
threonine_neut->an,9.1,threonine,Lange's handbook of chemistry,['[H]O[C@]([H])(C([H])([H])[H])[C@@]([H])(C(=O)[O-])[N+]([H])([H])[H]'],['[H]-[#7@@](-[H])(-[H])-[#6@](-[#6](=[#8])-[#8-])(-[#6@](-[#6@](-[H])(-[H])-[H])(-[H])-[#8]-[H])-[H]'],"['InChI=1S/C4H9NO3/c1-2(6)3(5)4(7)8/h2-3,6H,5H2,1H3,(H,7,8)/t2-,3+/m1/s1']",['AYFVYJQAPQTCCC-GBXIJSLDSA-N']
thymine_neut->an,9.9,thymine,10.1021/jp8068877,['[H]c1c(C([H])([H])[H])c(=O)n([H])c(=O)n1[H]'],['[#6]1(:[#6](:[#6](=[#8]):[#7](:[#6](=[#8]):[#7]:1-[H])-[H])-[#6@@](-[H])(-[H])-[H])-[H]'],"['InChI=1S/C5H6N2O2/c1-3-2-6-5(9)7-4(3)8/h2H,1H3,(H2,6,7,8,9)']",['RWQNBRDOKXIBIV-UHFFFAOYSA-N']
tiglic_neut->an,4.96,tiglic acid,Lange's handbook of chemistry,['[H]OC(=O)/C(=C(\\[H])C([H])([H])[H])C([H])([H])[H]'],['[#6](=[#8])(-[#8]-[H])/[#6](=[#6](\\[H])-[#6@@](-[H])(-[H])-[H])-[#6@@](-[H])(-[H])-[H]'],"['InChI=1S/C5H8O2/c1-3-4(2)5(6)7/h3H,1-2H3,(H,6,7)/b4-3+']",['UIERETOOQGIECD-ONEGZZNKSA-N']
tolylhydroquinone_neut->an,10.03,tolylhydroquinone,Lange's handbook of chemistry,['[H]Oc1c([H])c([H])c(O[H])c(C([H])([H])[H])c1[H]'],['[#8](-[#6]1:[#6](:[#6](:[#6](-[#8]-[H]):[#6](:[#6]:1-[H])-[H])-[H])-[#6@@](-[H])(-[H])-[H])-[H]'],"['InChI=1S/C7H8O2/c1-5-4-6(8)2-3-7(5)9/h2-4,8-9H,1H3']",['CNHDIAIOKMXOLK-UHFFFAOYSA-N']
tolylhydroquinone_an->2an,11.62,tolylhydroquinone,https://doi.org/10.1002/jlac.19687190112,['[H]Oc1c([H])c([H])c(O[H])c(C([H])([H])[H])c1[H]'],['[#8](-[#6]1:[#6](:[#6](:[#6](-[#8]-[H]):[#6](:[#6]:1-[H])-[H])-[H])-[#6@@](-[H])(-[H])-[H])-[H]'],"['InChI=1S/C7H8O2/c1-5-4-6(8)2-3-7(5)9/h2-4,8-9H,1H3']",['CNHDIAIOKMXOLK-UHFFFAOYSA-N']
trans12cyclohexanedicarboxylic_an->2an,5.93,"trans-1,2-cyclohexanedicarboxylic acid",Lange's handbook of chemistry,['[H]OC(=O)[C@]1([H])C([H])([H])C([H])([H])C([H])([H])C([H])([H])[C@@]1([H])C(=O)O[H]'],['[H]-[#6@]1(-[#6@@](-[#6@@](-[#6@](-[#6@](-[#6@@]-1(-[H])-[#6](=[#8])-[#8]-[H])(-[H])-[H])(-[H])-[H])(-[H])-[H])(-[H])-[H])-[#6](=[#8])-[#8]-[H]'],"['InChI=1S/C8H12O4/c9-7(10)5-3-1-2-4-6(5)8(11)12/h5-6H,1-4H2,(H,9,10)(H,11,12)/t5-,6-/m1/s1']",['QSAWQNUELGIYBC-PHDIDXHHSA-N']
trans12cyclohexanedicarboxylic_neut->an,4.18,"trans-1,2-cyclohexanedicarboxylic acid",Lange's handbook of chemistry,['[H]OC(=O)[C@]1([H])C([H])([H])C([H])([H])C([H])([H])C([H])([H])[C@@]1([H])C(=O)O[H]'],['[H]-[#6@]1(-[#6@@](-[#6@@](-[#6@](-[#6@](-[#6@@]-1(-[H])-[#6](=[#8])-[#8]-[H])(-[H])-[H])(-[H])-[H])(-[H])-[H])(-[H])-[H])-[#6](=[#8])-[#8]-[H]'],"['InChI=1S/C8H12O4/c9-7(10)5-3-1-2-4-6(5)8(11)12/h5-6H,1-4H2,(H,9,10)(H,11,12)/t5-,6-/m1/s1']",['QSAWQNUELGIYBC-PHDIDXHHSA-N']
trans1cyanocyclohexane2carboxylic_neut->an,3.87,trans-2-cyanocyclohexane-1-carboxylic acid,Lange's handbook of chemistry,['[H]OC(=O)[C@@]1([H])C([H])([H])C([H])([H])C([H])([H])C([H])([H])[C@]1([H])C#N'],['[H]-[#6@]1(-[#6@@](-[#6@](-[#6@](-[#6@](-[#6@@]-1(-[H])-[#6]#[#7])(-[H])-[#6](=[#8])-[#8]-[H])(-[H])-[H])(-[H])-[H])(-[H])-[H])-[H]'],"['InChI=1S/C8H11NO2/c9-5-6-3-1-2-4-7(6)8(10)11/h6-7H,1-4H2,(H,10,11)/t6-,7+/m1/s1']",['RTGNUEPVEHANTN-RQJHMYQMSA-N']
trans2bromocinnamic_neut->an,4.41,trans-2-bromocinnamic acid,Lange's handbook of chemistry,['[H]OC(=O)/C([H])=C(\\[H])c1c([H])c([H])c([H])c([H])c1Br'],['[#35]-[#6]1:[#6](:[#6](:[#6](:[#6](:[#6]:1-[H])-[H])-[H])-[H])/[#6](=[#6](/[#6](-[#8]-[H])=[#8])-[H])-[H]'],"['InChI=1S/C9H7BrO2/c10-8-4-2-1-3-7(8)5-6-9(11)12/h1-6H,(H,11,12)/b6-5+']",['OMHDOOAFLCMRFX-AATRIKPKSA-N']