compn,pKa,correct name,reference,smiles,smarts,inchi,inchiKey
flumequine_neut->an,6.38,flumequine,profiles of drug substances excipiends and related (U),['[H]OC(=O)c1c([H])n2c3c(c([H])c(F)c([H])c3c1=O)C([H])([H])C([H])([H])[C@@]2([H])C([H])([H])[H]'],['[#9]-[#6]1:[#6](:[#6]2-[#6@@](-[#6@@](-[#6@](-[#7]3:[#6]:2:[#6](:[#6](=[#8]):[#6](:[#6]:3-[H])-[#6](-[#8]-[H])=[#8]):[#6]:1-[H])(-[#6@@](-[H])(-[H])-[H])-[H])(-[H])-[H])(-[H])-[H])-[H]'],"['InChI=1S/C14H12FNO3/c1-7-2-3-8-4-9(15)5-10-12(8)16(7)6-11(13(10)17)14(18)19/h4-7H,2-3H2,1H3,(H,18,19)/t7-/m1/s1']",['DPSPPJIUMHPXMA-SSDOTTSWSA-N']
flunitrazepam_cation->neut,1.71,flunitrazepam,profiles of drug substances excipiends and related (A),['[H]c1c([H])c([H])c(C2=NC([H])([H])C(=O)N(C([H])([H])[H])c3c([H])c([H])c([N+](=O)[O-])c([H])c32)c(F)c1[H]'],['[#9]-[#6]1:[#6](-[#6]2=[#7]-[#6@](-[#6](=[#8])-[#7](-[#6]3:[#6]-2:[#6](:[#6](-[#7+](=[#8])-[#8-]):[#6](:[#6]:3-[H])-[H])-[H])-[#6@](-[H])(-[H])-[H])(-[H])-[H]):[#6](:[#6](:[#6](:[#6]:1-[H])-[H])-[H])-[H]'],"['InChI=1S/C16H12FN3O3/c1-19-14-7-6-10(20(22)23)8-12(14)16(18-9-15(19)21)11-4-2-3-5-13(11)17/h2-8H,9H2,1H3']",['PPTYJKAXVCCBDU-UHFFFAOYSA-N']
5fluorouracil_neut->an,8,5-fluorouracil,profiles of drug substances excipiends and related (U),['[H]c1c(F)c(=O)n([H])c(=O)n1[H]'],['[#9]-[#6]1:[#6](=[#8]):[#7](:[#6](=[#8]):[#7](:[#6]:1-[H])-[H])-[H]'],"['InChI=1S/C4H3FN2O2/c5-2-1-6-4(9)7-3(2)8/h1H,(H2,6,7,8,9)']",['GHASVSINZRGABV-UHFFFAOYSA-N']
5fluorouracil_an->2an,13,5-fluorouracil,profiles of drug substances excipiends and related (U),['[H]c1c(F)c(=O)n([H])c(=O)n1[H]'],['[#9]-[#6]1:[#6](=[#8]):[#7](:[#6](=[#8]):[#7](:[#6]:1-[H])-[H])-[H]'],"['InChI=1S/C4H3FN2O2/c5-2-1-6-4(9)7-3(2)8/h1H,(H2,6,7,8,9)']",['GHASVSINZRGABV-UHFFFAOYSA-N']
5fluoro1methoxycarbonyluracil_neut->an,6.8,5-fluoro-1methoxycarbonyl-uracyl,profiles of drug substances excipiends and related (U),['[H]c1c(F)c(=O)n([H])c(=O)n1C(=O)OC([H])([H])[H]'],['[#9]-[#6]1:[#6](=[#8]):[#7](:[#6](=[#8]):[#7](:[#6]:1-[H])-[#6](=[#8])-[#8]-[#6@@](-[H])(-[H])-[H])-[H]'],"['InChI=1S/C6H5FN2O4/c1-13-6(12)9-2-3(7)4(10)8-5(9)11/h2H,1H3,(H,8,10,11)']",['VYTPEAPPYZRJCZ-UHFFFAOYSA-N']
gluteghimide_neut->an,10.5,glutethimide,https://doi.org/10.1016/S0003-2670(01)85077-7,['[H]c1c([H])c([H])c([C@@]2(C([H])([H])C([H])([H])[H])C(=O)N([H])C(=O)C([H])([H])C2([H])[H])c([H])c1[H]'],['[#8]=[#6]1-[#7](-[#6](=[#8])-[#6@@](-[#6@@](-[#6@@]-1(-[#6@](-[#6@@](-[H])(-[H])-[H])(-[H])-[H])-[#6]1:[#6](:[#6](:[#6](:[#6](:[#6]:1-[H])-[H])-[H])-[H])-[H])(-[H])-[H])(-[H])-[H])-[H]'],"['InChI=1S/C13H15NO2/c1-2-13(10-6-4-3-5-7-10)9-8-11(15)14-12(13)16/h3-7H,2,8-9H2,1H3,(H,14,15,16)/t13-/m0/s1']",['JMBQKKAJIKAWKF-ZDUSSCGKSA-N']
heliotridane_cation->neut,11.4,heliotridane,profiles of drug substances excipiends and related (A),['[H]C1([H])N2C([H])([H])C([H])([H])[C@]([H])(C([H])([H])[H])[C@]2([H])C([H])([H])C1([H])[H]'],['[#7]12-[#6@](-[#6@](-[#6@](-[#6@@]-1(-[H])-[H])(-[H])-[H])(-[#6@@](-[H])(-[H])-[H])-[H])(-[#6@](-[#6@@](-[#6@@]-2(-[H])-[H])(-[H])-[H])(-[H])-[H])-[H]'],"['InChI=1S/C8H15N/c1-7-4-6-9-5-2-3-8(7)9/h7-8H,2-6H2,1H3/t7-,8-/m0/s1']",['BFHBAQJJQJPDGF-YUMQZZPRSA-N']
heliotridene_cation->neut,10.55,heliotridene,profiles of drug substances excipiends and related (A),['[H]C1=C(C([H])([H])[H])[C@@]2([H])N(C1([H])[H])C([H])([H])C([H])([H])C2([H])[H]'],['[#7]12-[#6@](-[#6](=[#6](-[#6@@]-1(-[H])-[H])-[H])-[#6@@](-[H])(-[H])-[H])(-[#6@](-[#6@@](-[#6@@]-2(-[H])-[H])(-[H])-[H])(-[H])-[H])-[H]'],"['InChI=1S/C8H13N/c1-7-4-6-9-5-2-3-8(7)9/h4,8H,2-3,5-6H2,1H3/t8-/m0/s1']",['ADGSVAHCPADPBZ-QMMMGPOBSA-N']
4hydroxycoumarin_neut->an,4.13,4-hydroxycoumarin,profiles of drug substances excipiends and related (U),['[H]Oc1c([H])c(=O)oc2c([H])c([H])c([H])c([H])c12'],['[#8]1:[#6]2:[#6](:[#6](-[#8]-[H]):[#6](:[#6]:1=[#8])-[H]):[#6](:[#6](:[#6](:[#6]:2-[H])-[H])-[H])-[H]'],"['InChI=1S/C9H6O3/c10-7-5-9(11)12-8-4-2-1-3-6(7)8/h1-5,10H']",['VXIXUWQIVKSKSA-UHFFFAOYSA-N']
4pyridinecarboxylic_cation->neut,1.78,4-pyridinecarboxylic,profiles of drug substances excipiends and related (U),['[H]c1c(C(=O)[O-])c([H])c([H])[n+]([H])c1[H]'],['[#6]1(:[#6](:[#6](:[#6](-[H]):[#7+](:[#6]:1-[H])-[H])-[H])-[#6](=[#8])-[#8-])-[H]'],"['InChI=1S/C6H5NO2/c8-6(9)5-1-3-7-4-2-5/h1-4H,(H,8,9)']",['TWBYWOBDOCUKOW-UHFFFAOYSA-N']
4pyridinecarboxylic_neut->an,4.85,4-pyridinecarboxylic,profiles of drug substances excipiends and related (U),['[H]c1c(C(=O)[O-])c([H])c([H])[n+]([H])c1[H]'],['[#6]1(:[#6](:[#6](:[#6](-[H]):[#7+](:[#6]:1-[H])-[H])-[H])-[#6](=[#8])-[#8-])-[H]'],"['InChI=1S/C6H5NO2/c8-6(9)5-1-3-7-4-2-5/h1-4H,(H,8,9)']",['TWBYWOBDOCUKOW-UHFFFAOYSA-N']
ketamine_cation->neut,7.5,ketamine,profiles of drug substances excipiends and related (U),['[H]c1c([H])c([H])c([C@]2(N([H])C([H])([H])[H])C(=O)C([H])([H])C([H])([H])C([H])([H])C2([H])[H])c(Cl)c1[H]'],['[#17]-[#6]1:[#6](-[#6@@]2(-[#7](-[#6@](-[H])(-[H])-[H])-[H])-[#6@](-[#6@](-[#6@](-[#6@](-[#6]-2=[#8])(-[H])-[H])(-[H])-[H])(-[H])-[H])(-[H])-[H]):[#6](:[#6](:[#6](:[#6]:1-[H])-[H])-[H])-[H]'],"['InChI=1S/C13H16ClNO/c1-15-13(9-5-4-8-12(13)16)10-6-2-3-7-11(10)14/h2-3,6-7,15H,4-5,8-9H2,1H3/t13-/m0/s1']",['YQEZLKZALYSWHR-ZDUSSCGKSA-N']
mecamylamine_cation->neut,11.2,mecamylamine,profiles of drug substances excipiends and related (U),['[H]N(C([H])([H])[H])[C@]1(C([H])([H])[H])C(C([H])([H])[H])(C([H])([H])[H])[C@]2([H])C([H])([H])C([H])([H])[C@@]1([H])C2([H])[H]'],['[#7](-[#6@@]1(-[#6@@](-[#6@]2(-[#6@@](-[#6@@]-1(-[#6@](-[#6@@]-2(-[H])-[H])(-[H])-[H])-[H])(-[H])-[H])-[H])(-[#6@@](-[H])(-[H])-[H])-[#6@@](-[H])(-[H])-[H])-[#6@@](-[H])(-[H])-[H])(-[#6@](-[H])(-[H])-[H])-[H]'],"['InChI=1S/C11H21N/c1-10(2)8-5-6-9(7-8)11(10,3)12-4/h8-9,12H,5-7H2,1-4H3/t8-,9+,11+/m1/s1']",['IMYZQPCYWPFTAG-YWVKMMECSA-N']
methyl4hydroxybenzoate_neut->an,8.15,methyl-4-hydroxybenzoate,profiles of drug substances excipiends and related (U),['[H]Oc1c([H])c([H])c(C(=O)OC([H])([H])[H])c([H])c1[H]'],['[#8](-[#6](=[#8])-[#6]1:[#6](:[#6](:[#6](-[#8]-[H]):[#6](:[#6]:1-[H])-[H])-[H])-[H])-[#6@](-[H])(-[H])-[H]'],"['InChI=1S/C8H8O3/c1-11-8(10)6-2-4-7(9)5-3-6/h2-5,9H,1H3']",['LXCFILQKKLGQFO-UHFFFAOYSA-N']
mianserin_cation->neut,7.5,mianserin,profiles of drug substances excipiends and related (U),['[H]c1c([H])c([H])c2c(c1[H])N1C([H])([H])C([H])([H])N(C([H])([H])[H])C([H])([H])[C@@]1([H])c1c([H])c([H])c([H])c([H])c1C2([H])[H]'],['[#7]12-[#6@@](-[#6@@](-[#7](-[#6@](-[#6@@]-1(-[H])-[H])(-[H])-[H])-[#6@](-[H])(-[H])-[H])(-[H])-[H])(-[#6]1:[#6](-[#6@@](-[#6]3:[#6]-2:[#6](:[#6](:[#6](:[#6]:3-[H])-[H])-[H])-[H])(-[H])-[H]):[#6](:[#6](:[#6](:[#6]:1-[H])-[H])-[H])-[H])-[H]'],"['InChI=1S/C18H20N2/c1-19-10-11-20-17-9-5-3-7-15(17)12-14-6-2-4-8-16(14)18(20)13-19/h2-9,18H,10-13H2,1H3/t18-/m0/s1']",['UEQUQVLFIPOEMF-SFHVURJKSA-N']
midazolam_2cation->cation,1.7,midazolam,profiles of drug substances excipiends and related (U),['[H]c1nc(C([H])([H])[H])n2c1C([H])([H])N=C(c1c([H])c([H])c([H])c([H])c1F)c1c([H])c(Cl)c([H])c([H])c1-2'],['[#17]-[#6]1:[#6](:[#6]2:[#6](-[#7]3:[#6](-[#6@@](-[#7]=[#6]-2-[#6]2:[#6](-[#9]):[#6](:[#6](:[#6](:[#6]:2-[H])-[H])-[H])-[H])(-[H])-[H]):[#6](:[#7]:[#6]:3-[#6@@](-[H])(-[H])-[H])-[H]):[#6](:[#6]:1-[H])-[H])-[H]'],"['InChI=1S/C18H13ClFN3/c1-11-21-9-13-10-22-18(14-4-2-3-5-16(14)20)15-8-12(19)6-7-17(15)23(11)13/h2-9H,10H2,1H3']",['DDLIGBOFAVUZHB-UHFFFAOYSA-N']
midazolam_cation->neut,6.5,midazolam,profiles of drug substances excipiends and related (U),['[H]c1nc(C([H])([H])[H])n2c1C([H])([H])N=C(c1c([H])c([H])c([H])c([H])c1F)c1c([H])c(Cl)c([H])c([H])c1-2'],['[#17]-[#6]1:[#6](:[#6]2:[#6](-[#7]3:[#6](-[#6@@](-[#7]=[#6]-2-[#6]2:[#6](-[#9]):[#6](:[#6](:[#6](:[#6]:2-[H])-[H])-[H])-[H])(-[H])-[H]):[#6](:[#7]:[#6]:3-[#6@@](-[H])(-[H])-[H])-[H]):[#6](:[#6]:1-[H])-[H])-[H]'],"['InChI=1S/C18H13ClFN3/c1-11-21-9-13-10-22-18(14-4-2-3-5-16(14)20)15-8-12(19)6-7-17(15)23(11)13/h2-9H,10H2,1H3']",['DDLIGBOFAVUZHB-UHFFFAOYSA-N']
nicotinamide_cation->neut,3.33,nicotinamide,profiles of drug substances excipiends and related (R),['[H]c1nc([H])c(C(=O)N([H])[H])c([H])c1[H]'],['[#8]=[#6](-[#7](-[H])-[H])-[#6]1:[#6](:[#6](:[#6](:[#7]:[#6]:1-[H])-[H])-[H])-[H]'],"['InChI=1S/C6H6N2O/c7-6(9)5-2-1-3-8-4-5/h1-4H,(H2,7,9)']",['DFPAKSUCGFBDDF-UHFFFAOYSA-N']
3pyridinecarboxylic_cation->neut,2.03,3-pyiridinecarboxylic,profiles of drug substances excipiends and related (U),['[H]c1c([H])c([H])[n+]([H])c([H])c1C(=O)[O-]'],['[#6]1(:[#6](:[#6](-[H]):[#7+](:[#6](:[#6]:1-[H])-[H])-[H])-[#6](=[#8])-[#8-])-[H]'],"['InChI=1S/C6H5NO2/c8-6(9)5-2-1-3-7-4-5/h1-4H,(H,8,9)']",['PVNIIMVLHYAWGP-UHFFFAOYSA-N']
3pyridinecarboxylic_neut->an,4.83,3-pyiridinecarboxylic,profiles of drug substances excipiends and related (U),['[H]c1c([H])c([H])[n+]([H])c([H])c1C(=O)[O-]'],['[#6]1(:[#6](:[#6](-[H]):[#7+](:[#6](:[#6]:1-[H])-[H])-[H])-[#6](=[#8])-[#8-])-[H]'],"['InChI=1S/C6H5NO2/c8-6(9)5-2-1-3-7-4-5/h1-4H,(H,8,9)']",['PVNIIMVLHYAWGP-UHFFFAOYSA-N']
phenytoin_neut->an,8.31,phenytoin,profiles of drug substances excipiends and related (U),['[H]c1c([H])c([H])c(C2(c3c([H])c([H])c([H])c([H])c3[H])C(=O)N([H])C(=O)N2[H])c([H])c1[H]'],['[#8]=[#6]1-[#7](-[#6](=[#8])-[#7](-[#6@@]-1(-[#6]1:[#6](:[#6](:[#6](:[#6](:[#6]:1-[H])-[H])-[H])-[H])-[H])-[#6]1:[#6](:[#6](:[#6](:[#6](:[#6]:1-[H])-[H])-[H])-[H])-[H])-[H])-[H]'],"['InChI=1S/C15H12N2O2/c18-13-15(17-14(19)16-13,11-7-3-1-4-8-11)12-9-5-2-6-10-12/h1-10H,(H2,16,17,18,19)']",['CXOFVDLJLONNDW-UHFFFAOYSA-N']
pseudoecgonine_neut->an,9.7,pseudoecgonine,profiles of drug substances excipiends and related (U),['[H]O[C@@]1([H])C([H])([H])[C@]2([H])C([H])([H])C([H])([H])[C@]([H])([C@]1([H])C(=O)[O-])[N@@+]2([H])C([H])([H])[H]'],['[#8](-[#6@@]1(-[#6@](-[#6@@]2(-[#7@+](-[#6@@](-[#6@](-[#6@@]-2(-[H])-[H])(-[H])-[H])(-[#6@@]-1(-[H])-[H])-[H])(-[#6@](-[H])(-[H])-[H])-[H])-[H])(-[#6](=[#8])-[#8-])-[H])-[H])-[H]'],"['InChI=1S/C9H15NO3/c1-10-5-2-3-6(10)8(9(12)13)7(11)4-5/h5-8,11H,2-4H2,1H3,(H,12,13)/t5-,6+,7-,8-/m0/s1']",['PHMBVCPLDPDESM-YWIQKCBGSA-N']
pseudoecgoninemethylester_cation->neut,8.15,pseudoecgonine,profiles of drug substances excipiends and related (A),['[H]O[C@@]1([H])C([H])([H])[C@@]2([H])N(C([H])([H])[H])[C@]([H])(C([H])([H])C2([H])[H])[C@]1([H])C(=O)OC([H])([H])[H]'],['[#8](-[#6@@]1(-[#6@](-[#6@@]2(-[#7](-[#6@@](-[#6@](-[#6@@]-2(-[H])-[H])(-[H])-[H])(-[#6@@]-1(-[H])-[H])-[H])-[#6@](-[H])(-[H])-[H])-[H])(-[#6](=[#8])-[#8]-[#6@@](-[H])(-[H])-[H])-[H])-[H])-[H]'],"['InChI=1S/C10H17NO3/c1-11-6-3-4-7(11)9(8(12)5-6)10(13)14-2/h6-9,12H,3-5H2,1-2H3/t6-,7+,8-,9-/m0/s1']",['QIQNNBXHAYSQRY-KZVJFYERSA-N']
ciprofloxacin_cation->neut,6.09,ciprofloxacin,profiles of drug substances excipiends and related (U),['[H]c1c(F)c(N2C([H])([H])C([H])([H])[N+]([H])([H])C([H])([H])C2([H])[H])c([H])c2c1c(=O)c(C(=O)[O-])c([H])n2C1([H])C([H])([H])C1([H])[H]'],['[#9]-[#6]1:[#6](-[#7]2-[#6@](-[#6@@](-[#7@+](-[#6@](-[#6@@]-2(-[H])-[H])(-[H])-[H])(-[H])-[H])(-[H])-[H])(-[H])-[H]):[#6](:[#6]2:[#7](-[#6@]3(-[#6@](-[#6@@]-3(-[H])-[H])(-[H])-[H])-[H]):[#6](:[#6](:[#6](=[#8]):[#6]:2:[#6]:1-[H])-[#6](=[#8])-[#8-])-[H])-[H]'],"['InChI=1S/C17H18FN3O3/c18-13-7-11-14(8-15(13)20-5-3-19-4-6-20)21(10-1-2-10)9-12(16(11)22)17(23)24/h7-10,19H,1-6H2,(H,23,24)']",['MYSWGUAQZAJSOK-UHFFFAOYSA-N']
ciprofloxacin_neut->an,8.74,ciprofloxacin,profiles of drug substances excipiends and related (U),['[H]c1c(F)c(N2C([H])([H])C([H])([H])[N+]([H])([H])C([H])([H])C2([H])[H])c([H])c2c1c(=O)c(C(=O)[O-])c([H])n2C1([H])C([H])([H])C1([H])[H]'],['[#9]-[#6]1:[#6](-[#7]2-[#6@](-[#6@@](-[#7@+](-[#6@](-[#6@@]-2(-[H])-[H])(-[H])-[H])(-[H])-[H])(-[H])-[H])(-[H])-[H]):[#6](:[#6]2:[#7](-[#6@]3(-[#6@](-[#6@@]-3(-[H])-[H])(-[H])-[H])-[H]):[#6](:[#6](:[#6](=[#8]):[#6]:2:[#6]:1-[H])-[#6](=[#8])-[#8-])-[H])-[H]'],"['InChI=1S/C17H18FN3O3/c18-13-7-11-14(8-15(13)20-5-3-19-4-6-20)21(10-1-2-10)9-12(16(11)22)17(23)24/h7-10,19H,1-6H2,(H,23,24)']",['MYSWGUAQZAJSOK-UHFFFAOYSA-N']
difloxacin_cation->neut,6.06,difloxacin,profiles of drug substances excipiends and related (U),['[H]c1c([H])c(-n2c([H])c(C(=O)[O-])c(=O)c3c([H])c(F)c(N4C([H])([H])C([H])([H])[N+]([H])(C([H])([H])[H])C([H])([H])C4([H])[H])c([H])c32)c([H])c([H])c1F'],['[#9]-[#6]1:[#6](-[#7]2-[#6@@](-[#6@@](-[#7@@+](-[#6@](-[#6@]-2(-[H])-[H])(-[H])-[H])(-[#6@](-[H])(-[H])-[H])-[H])(-[H])-[H])(-[H])-[H]):[#6](:[#6]2:[#7](:[#6](:[#6](:[#6](=[#8]):[#6]:2:[#6]:1-[H])-[#6](=[#8])-[#8-])-[H])-[#6]1:[#6](:[#6](:[#6](-[#9]):[#6](:[#6]:1-[H])-[H])-[H])-[H])-[H]'],"['InChI=1S/C21H19F2N3O3/c1-24-6-8-25(9-7-24)19-11-18-15(10-17(19)23)20(27)16(21(28)29)12-26(18)14-4-2-13(22)3-5-14/h2-5,10-12H,6-9H2,1H3,(H,28,29)']",['NOCJXYPHIIZEHN-UHFFFAOYSA-N']
difloxacin_neut->an,7.63,difloxacin,profiles of drug substances excipiends and related (U),['[H]c1c([H])c(-n2c([H])c(C(=O)[O-])c(=O)c3c([H])c(F)c(N4C([H])([H])C([H])([H])[N+]([H])(C([H])([H])[H])C([H])([H])C4([H])[H])c([H])c32)c([H])c([H])c1F'],['[#9]-[#6]1:[#6](-[#7]2-[#6@@](-[#6@@](-[#7@@+](-[#6@](-[#6@]-2(-[H])-[H])(-[H])-[H])(-[#6@](-[H])(-[H])-[H])-[H])(-[H])-[H])(-[H])-[H]):[#6](:[#6]2:[#7](:[#6](:[#6](:[#6](=[#8]):[#6]:2:[#6]:1-[H])-[#6](=[#8])-[#8-])-[H])-[#6]1:[#6](:[#6](:[#6](-[#9]):[#6](:[#6]:1-[H])-[H])-[H])-[H])-[H]'],"['InChI=1S/C21H19F2N3O3/c1-24-6-8-25(9-7-24)19-11-18-15(10-17(19)23)20(27)16(21(28)29)12-26(18)14-4-2-13(22)3-5-14/h2-5,10-12H,6-9H2,1H3,(H,28,29)']",['NOCJXYPHIIZEHN-UHFFFAOYSA-N']
nalixidic_neut->an,5.95,nalixidic,profiles of drug substances excipiends and related (U),['[H]OC(=O)c1c([H])n(C([H])([H])C([H])([H])[H])c2nc(C([H])([H])[H])c([H])c([H])c2c1=O'],['[#8]=[#6]1:[#6]2:[#6](:[#7](-[#6@@](-[#6@@](-[H])(-[H])-[H])(-[H])-[H]):[#6](:[#6]:1-[#6](-[#8]-[H])=[#8])-[H]):[#7]:[#6](:[#6](:[#6]:2-[H])-[H])-[#6@@](-[H])(-[H])-[H]'],"['InChI=1S/C12H12N2O3/c1-3-14-6-9(12(16)17)10(15)8-5-4-7(2)13-11(8)14/h4-6H,3H2,1-2H3,(H,16,17)']",['MHWLWQUZZRMNGJ-UHFFFAOYSA-N']
ofloxacin_cation->neut,6.05,ofloxacin,profiles of drug substances excipiends and related (U),['[H]c1c(F)c(N2C([H])([H])C([H])([H])[N+]([H])(C([H])([H])[H])C([H])([H])C2([H])[H])c2c3c1c(=O)c(C(=O)[O-])c([H])n3[C@]([H])(C([H])([H])[H])C([H])([H])O2'],['[#9]-[#6]1:[#6](-[#7]2-[#6@@](-[#6@@](-[#7@+](-[#6@](-[#6@]-2(-[H])-[H])(-[H])-[H])(-[#6@](-[H])(-[H])-[H])-[H])(-[H])-[H])(-[H])-[H]):[#6]2-[#8]-[#6@](-[#6@](-[#7]3:[#6]:2:[#6](:[#6]:1-[H]):[#6](=[#8]):[#6](:[#6]:3-[H])-[#6](=[#8])-[#8-])(-[#6@@](-[H])(-[H])-[H])-[H])(-[H])-[H]'],"['InChI=1S/C18H20FN3O4/c1-10-9-26-17-14-11(16(23)12(18(24)25)8-22(10)14)7-13(19)15(17)21-5-3-20(2)4-6-21/h7-8,10H,3-6,9H2,1-2H3,(H,24,25)/t10-/m1/s1']",['GSDSWSVVBLHKDQ-SNVBAGLBSA-N']
ofloxacin_neut->an,8.22,ofloxacin,profiles of drug substances excipiends and related (U),['[H]c1c(F)c(N2C([H])([H])C([H])([H])[N+]([H])(C([H])([H])[H])C([H])([H])C2([H])[H])c2c3c1c(=O)c(C(=O)[O-])c([H])n3[C@]([H])(C([H])([H])[H])C([H])([H])O2'],['[#9]-[#6]1:[#6](-[#7]2-[#6@@](-[#6@@](-[#7@+](-[#6@](-[#6@]-2(-[H])-[H])(-[H])-[H])(-[#6@](-[H])(-[H])-[H])-[H])(-[H])-[H])(-[H])-[H]):[#6]2-[#8]-[#6@](-[#6@](-[#7]3:[#6]:2:[#6](:[#6]:1-[H]):[#6](=[#8]):[#6](:[#6]:3-[H])-[#6](=[#8])-[#8-])(-[#6@@](-[H])(-[H])-[H])-[H])(-[H])-[H]'],"['InChI=1S/C18H20FN3O4/c1-10-9-26-17-14-11(16(23)12(18(24)25)8-22(10)14)7-13(19)15(17)21-5-3-20(2)4-6-21/h7-8,10H,3-6,9H2,1-2H3,(H,24,25)/t10-/m1/s1']",['GSDSWSVVBLHKDQ-SNVBAGLBSA-N']
nethylquinolonecarboxylic_neut->an,6.51,N-ethyl-quinolone carboxylic acid,profiles of drug substances excipiends and related (U),['[H]OC(=O)c1c([H])n(C([H])([H])C([H])([H])[H])c2c([H])c([H])c([H])c([H])c2c1=O'],['[#8](-[#6](=[#8])-[#6]1:[#6](:[#6]2:[#6](:[#7](:[#6]:1-[H])-[#6@@](-[H])(-[H])-[#6@@](-[H])(-[H])-[H]):[#6](:[#6](:[#6](:[#6]:2-[H])-[H])-[H])-[H])=[#8])-[H]'],"['InChI=1S/C12H11NO3/c1-2-13-7-9(12(15)16)11(14)8-5-3-4-6-10(8)13/h3-7H,2H2,1H3,(H,15,16)']",['ZSEJADLCFCHIGX-UHFFFAOYSA-N']
sorbic_neut->an,4.51,sorbic acid ,profiles of drug substances excipiends and related (U),['[H]OC(=O)/C([H])=C([H])/C([H])=C(\\[H])C([H])([H])[H]'],['[#8](-[#6](=[#8])/[#6](=[#6](-[#6](=[#6](/[#6@@](-[H])(-[H])-[H])-[H])/[H])\\[H])-[H])-[H]'],"['InChI=1S/C6H8O2/c1-2-3-4-5-6(7)8/h2-5H,1H3,(H,7,8)/b3-2+,5-4+']",['WSWCOQWTEOXDQX-MQQKCMAXSA-N']
sulfamethazine_cation->neut,2.65,sulfadimidine,profiles of drug substances excipiends and related (U),['[H]c1c(C([H])([H])[H])nc(N([H])S(=O)(=O)c2c([H])c([H])c(N([H])[H])c([H])c2[H])nc1C([H])([H])[H]'],['[#8]=[#16@@](=[#8])(-[#7](-[#6]1:[#7]:[#6](:[#6](:[#6](:[#7]:1)-[#6@@](-[H])(-[H])-[H])-[H])-[#6@@](-[H])(-[H])-[H])-[H])-[#6]1:[#6](:[#6](:[#6](-[#7](-[H])-[H]):[#6](:[#6]:1-[H])-[H])-[H])-[H]'],"['InChI=1S/C12H14N4O2S/c1-8-7-9(2)15-12(14-8)16-19(17,18)11-5-3-10(13)4-6-11/h3-7H,13H2,1-2H3,(H,14,15,16)']",['ASWVTGNCAZCNNR-UHFFFAOYSA-N']
sulfamethazine_neut->an,7.59,sulfadimidine,profiles of drug substances excipiends and related (U),['[H]c1c(C([H])([H])[H])nc(N([H])S(=O)(=O)c2c([H])c([H])c(N([H])[H])c([H])c2[H])nc1C([H])([H])[H]'],['[#8]=[#16@@](=[#8])(-[#7](-[#6]1:[#7]:[#6](:[#6](:[#6](:[#7]:1)-[#6@@](-[H])(-[H])-[H])-[H])-[#6@@](-[H])(-[H])-[H])-[H])-[#6]1:[#6](:[#6](:[#6](-[#7](-[H])-[H]):[#6](:[#6]:1-[H])-[H])-[H])-[H]'],"['InChI=1S/C12H14N4O2S/c1-8-7-9(2)15-12(14-8)16-19(17,18)11-5-3-10(13)4-6-11/h3-7H,13H2,1-2H3,(H,14,15,16)']",['ASWVTGNCAZCNNR-UHFFFAOYSA-N']
sulfamethoxypyridazine_neut->an,7.19,sulfamethoxypyridazine,profiles of drug substances excipiends and related (U),['[H]c1c(OC([H])([H])[H])nnc(N([H])S(=O)(=O)c2c([H])c([H])c(N([H])[H])c([H])c2[H])c1[H]'],['[#8]=[#16@@](=[#8])(-[#7](-[#6]1:[#7]:[#7]:[#6](-[#8]-[#6@](-[H])(-[H])-[H]):[#6](:[#6]:1-[H])-[H])-[H])-[#6]1:[#6](:[#6](:[#6](-[#7](-[H])-[H]):[#6](:[#6]:1-[H])-[H])-[H])-[H]'],"['InChI=1S/C11H12N4O3S/c1-18-11-7-6-10(13-14-11)15-19(16,17)9-4-2-8(12)3-5-9/h2-7H,12H2,1H3,(H,13,15)']",['VLYWMPOKSSWJAL-UHFFFAOYSA-N']
sulfanylamide_cation->neut,2.36,sulfanilamide,profiles of drug substances excipiends and related (U),['[H]c1c([H])c(S(=O)(=O)N([H])[H])c([H])c([H])c1N([H])[H]'],['[#8]=[#16@](=[#8])(-[#7](-[H])-[H])-[#6]1:[#6](:[#6](:[#6](-[#7](-[H])-[H]):[#6](:[#6]:1-[H])-[H])-[H])-[H]'],"['InChI=1S/C6H8N2O2S/c7-5-1-3-6(4-2-5)11(8,9)10/h1-4H,7H2,(H2,8,9,10)']",['FDDDEECHVMSUSB-UHFFFAOYSA-N']
sulfanylamide_neut->an,10.43,sulfanilamide,profiles of drug substances excipiends and related (U),['[H]c1c([H])c(S(=O)(=O)N([H])[H])c([H])c([H])c1N([H])[H]'],['[#8]=[#16@](=[#8])(-[#7](-[H])-[H])-[#6]1:[#6](:[#6](:[#6](-[#7](-[H])-[H]):[#6](:[#6]:1-[H])-[H])-[H])-[H]'],"['InChI=1S/C6H8N2O2S/c7-5-1-3-6(4-2-5)11(8,9)10/h1-4H,7H2,(H2,8,9,10)']",['FDDDEECHVMSUSB-UHFFFAOYSA-N']
sulfabenzamide_cation->neut,1.78,sulfanylamide N1-benzoyl,profiles of drug substances excipiends and related (U),['[H]c1c([H])c([H])c(C(=O)N([H])S(=O)(=O)c2c([H])c([H])c(N([H])[H])c([H])c2[H])c([H])c1[H]'],['[#8]=[#16@@](=[#8])(-[#7](-[#6](=[#8])-[#6]1:[#6](:[#6](:[#6](:[#6](:[#6]:1-[H])-[H])-[H])-[H])-[H])-[H])-[#6]1:[#6](:[#6](:[#6](-[#7](-[H])-[H]):[#6](:[#6]:1-[H])-[H])-[H])-[H]'],"['InChI=1S/C13H12N2O3S/c14-11-6-8-12(9-7-11)19(17,18)15-13(16)10-4-2-1-3-5-10/h1-9H,14H2,(H,15,16)']",['PBCZLFBEBARBBI-UHFFFAOYSA-N']
sulfabenzamide_neut->an,4.57,sulfanylamide N1-benzoyl,profiles of drug substances excipiends and related (U),['[H]c1c([H])c([H])c(C(=O)N([H])S(=O)(=O)c2c([H])c([H])c(N([H])[H])c([H])c2[H])c([H])c1[H]'],['[#8]=[#16@@](=[#8])(-[#7](-[#6](=[#8])-[#6]1:[#6](:[#6](:[#6](:[#6](:[#6]:1-[H])-[H])-[H])-[H])-[H])-[H])-[#6]1:[#6](:[#6](:[#6](-[#7](-[H])-[H]):[#6](:[#6]:1-[H])-[H])-[H])-[H]'],"['InChI=1S/C13H12N2O3S/c14-11-6-8-12(9-7-11)19(17,18)15-13(16)10-4-2-1-3-5-10/h1-9H,14H2,(H,15,16)']",['PBCZLFBEBARBBI-UHFFFAOYSA-N']
tecomine_cation->neut,7.2,tecomine,profiles of drug substances excipiends and related (U),['[H]C1=C2[C@@]([H])(C([H])([H])[H])C([H])([H])N(C([H])([H])[H])C([H])([H])[C@@]2([H])[C@]([H])(C([H])([H])[H])C1=O'],['[#8]=[#6]1-[#6@](-[#6@]2(-[#6](-[#6@](-[#6@@](-[#7](-[#6@]-2(-[H])-[H])-[#6@](-[H])(-[H])-[H])(-[H])-[H])(-[#6@@](-[H])(-[H])-[H])-[H])=[#6]-1-[H])-[H])(-[#6@@](-[H])(-[H])-[H])-[H]'],"['InChI=1S/C11H17NO/c1-7-5-12(3)6-10-8(2)11(13)4-9(7)10/h4,7-8,10H,5-6H2,1-3H3/t7-,8-,10-/m0/s1']",['QGCAKXUASFKRJA-NRPADANISA-N']