compn,pKa,correct name,reference,smiles,smarts,inchi,inchiKey
isocytosine_cation->neut,4.07,isocytosine,10.1021/ic0353965,"['[H]Oc1nc(N([H])[H])nc([H])c1[H]', '[H]c1c([H])n([H])c(N([H])[H])nc1=O', '[H]c1nc(N([H])[H])n([H])c(=O)c1[H]']","['[#8](-[#6]1:[#7]:[#6](:[#7]:[#6](:[#6]:1-[H])-[H])-[#7](-[H])-[H])-[H]', '[#8]=[#6]1:[#7]:[#6](:[#7](:[#6](:[#6]:1-[H])-[H])-[H])-[#7](-[H])-[H]', '[#8]=[#6]1:[#7](:[#6](:[#7]:[#6](:[#6]:1-[H])-[H])-[#7](-[H])-[H])-[H]']","['InChI=1S/C4H5N3O/c5-4-6-2-1-3(8)7-4/h1-2H,(H3,5,6,7,8)']",['XQCZBXHVTFVIFE-UHFFFAOYSA-N']
isocytosine_neut->an,9.47,isocytosine,10.1021/ic0353965,"['[H]Oc1nc(N([H])[H])nc([H])c1[H]', '[H]c1c([H])n([H])c(N([H])[H])nc1=O', '[H]c1nc(N([H])[H])n([H])c(=O)c1[H]']","['[#8](-[#6]1:[#7]:[#6](:[#7]:[#6](:[#6]:1-[H])-[H])-[#7](-[H])-[H])-[H]', '[#8]=[#6]1:[#7]:[#6](:[#7](:[#6](:[#6]:1-[H])-[H])-[H])-[#7](-[H])-[H]', '[#8]=[#6]1:[#7](:[#6](:[#7]:[#6](:[#6]:1-[H])-[H])-[#7](-[H])-[H])-[H]']","['InChI=1S/C4H5N3O/c5-4-6-2-1-3(8)7-4/h1-2H,(H3,5,6,7,8)']",['XQCZBXHVTFVIFE-UHFFFAOYSA-N']
56dimethyl2thiouracil_neut->an,8.08,"5,6-dimethyl-2-thiouracil","J. Pharm. Sci. 59,1970, 1383","['[H]n1c(C([H])([H])[H])c(C([H])([H])[H])c(=O)n([H])c1=S', '[H]Oc1nc(=S)n([H])c(C([H])([H])[H])c1C([H])([H])[H]', '[H]Oc1c(C([H])([H])[H])c(C([H])([H])[H])nc(=S)n1[H]']","['[#16]=[#6]1:[#7](:[#6](:[#6](:[#6](=[#8]):[#7]:1-[H])-[#6@](-[H])(-[H])-[H])-[#6@](-[H])(-[H])-[H])-[H]', '[#16]=[#6]1:[#7](:[#6](:[#6](:[#6](-[#8]-[H]):[#7]:1)-[#6@](-[H])(-[H])-[H])-[#6@](-[H])(-[H])-[H])-[H]', '[#16]=[#6]1:[#7]:[#6](:[#6](:[#6](-[#8]-[H]):[#7]:1-[H])-[#6@](-[H])(-[H])-[H])-[#6@](-[H])(-[H])-[H]']","['InChI=1S/C6H8N2OS/c1-3-4(2)7-6(10)8-5(3)9/h1-2H3,(H2,7,8,9,10)']",['MEAKRQUSGACTFV-UHFFFAOYSA-N']
6methyl2thiouracil_neut->an,7.73,6-methyul-2-thiouracil,"J. Pharm. Sci. 59,1970, 1383","['[H]Oc1nc(=S)n([H])c(C([H])([H])[H])c1[H]', '[H]Oc1c([H])c(C([H])([H])[H])nc(=S)n1[H]', '[H]c1c(C([H])([H])[H])n([H])c(=S)n([H])c1=O']","['[#16]=[#6]1:[#7](:[#6](:[#6](:[#6](-[#8]-[H]):[#7]:1)-[H])-[#6@](-[H])(-[H])-[H])-[H]', '[#16]=[#6]1:[#7]:[#6](:[#6](:[#6](-[#8]-[H]):[#7]:1-[H])-[H])-[#6@](-[H])(-[H])-[H]', '[#16]=[#6]1:[#7](:[#6](:[#6](:[#6](=[#8]):[#7]:1-[H])-[H])-[#6@](-[H])(-[H])-[H])-[H]']","['InChI=1S/C5H6N2OS/c1-3-2-4(8)7-5(9)6-3/h2H,1H3,(H2,6,7,8,9)']",['HWGBHCRJGXAGEU-UHFFFAOYSA-N']
5methyl2thiouracil_neut->an,7.71,5-methyul-2-thiouracil,"J. Pharm. Sci. 59,1970, 1383","['[H]Oc1c(C([H])([H])[H])c([H])nc(=S)n1[H]', '[H]Oc1nc(=S)n([H])c([H])c1C([H])([H])[H]', '[H]c1c(C([H])([H])[H])c(=O)n([H])c(=S)n1[H]']","['[#16]=[#6]1:[#7](:[#6](-[#8]-[H]):[#6](:[#6](:[#7]:1)-[H])-[#6@](-[H])(-[H])-[H])-[H]', '[#16]=[#6]1:[#7]:[#6](-[#8]-[H]):[#6](:[#6](:[#7]:1-[H])-[H])-[#6@](-[H])(-[H])-[H]', '[#16]=[#6]1:[#7](:[#6](=[#8]):[#6](:[#6](:[#7]:1-[H])-[H])-[#6@](-[H])(-[H])-[H])-[H]']","['InChI=1S/C5H6N2OS/c1-3-2-6-5(9)7-4(3)8/h2H,1H3,(H2,6,7,8,9)']",['ZLAQATDNGLKIEV-UHFFFAOYSA-N']
4dimethylamino6methoxypyrimidine_cation->neut,4.23,4-dimethylamino-6-methoxypyrimidine,"Aust. J. Chem., 1965, 18, 559-68",['[H]c1nc(OC([H])([H])[H])c([H])c(N(C([H])([H])[H])C([H])([H])[H])n1'],['[#7]1:[#6](-[#7](-[#6@@](-[H])(-[H])-[H])-[#6@@](-[H])(-[H])-[H]):[#6](:[#6](:[#7]:[#6]:1-[H])-[#8]-[#6@@](-[H])(-[H])-[H])-[H]'],"['InChI=1S/C7H11N3O/c1-10(2)6-4-7(11-3)9-5-8-6/h4-5H,1-3H3']",['SZMGWPTXDFDPOV-UHFFFAOYSA-N']
4dimethylamino6methylthiopyrimidine_cation->neut,4.57,4-dimethylamino-6-methylthiopyrimidine,"Aust. J. Chem., 1965, 18, 559-68",['[H]c1nc(SC([H])([H])[H])c([H])c(N(C([H])([H])[H])C([H])([H])[H])n1'],['[#7]1:[#6](-[#7](-[#6@@](-[H])(-[H])-[H])-[#6@@](-[H])(-[H])-[H]):[#6](:[#6](:[#7]:[#6]:1-[H])-[#16]-[#6@@](-[H])(-[H])-[H])-[H]'],"['InChI=1S/C7H11N3S/c1-10(2)6-4-7(11-3)9-5-8-6/h4-5H,1-3H3']",['VIPYGEPUMNIBDP-UHFFFAOYSA-N']
4dimethylamino6mercaptopyrimidine_cation->neut,-0.27,4-dimethylamino-6-mercaptopyrimidine,"Aust. J. Chem., 1965, 18, 559-68","['[H]Sc1nc([H])nc(N(C([H])([H])[H])C([H])([H])[H])c1[H]', '[H]c1c(N(C([H])([H])[H])C([H])([H])[H])nc([H])n([H])c1=S', '[H]c1c(N(C([H])([H])[H])C([H])([H])[H])n([H])c([H])nc1=S']","['[#7]1:[#6](-[#7](-[#6@@](-[H])(-[H])-[H])-[#6@@](-[H])(-[H])-[H]):[#6](:[#6](:[#7]:[#6]:1-[H])-[#16]-[H])-[H]', '[#7]1:[#6](-[#7](-[#6@@](-[H])(-[H])-[H])-[#6@@](-[H])(-[H])-[H]):[#6](:[#6](:[#7](:[#6]:1-[H])-[H])=[#16])-[H]', '[#7]1(:[#6](-[#7](-[#6@@](-[H])(-[H])-[H])-[#6@@](-[H])(-[H])-[H]):[#6](:[#6](:[#7]:[#6]:1-[H])=[#16])-[H])-[H]']","['InChI=1S/C6H9N3S/c1-9(2)5-3-6(10)8-4-7-5/h3-4H,1-2H3,(H,7,8,10)']",['CEFLCPCPLVTQLS-UHFFFAOYSA-N']
4dimethylamino6mercaptopyrimidine_neut->an,9.5,4-dimethylamino-6-mercaptopyrimidine,"Aust. J. Chem., 1965, 18, 559-68","['[H]Sc1nc([H])nc(N(C([H])([H])[H])C([H])([H])[H])c1[H]', '[H]c1c(N(C([H])([H])[H])C([H])([H])[H])nc([H])n([H])c1=S', '[H]c1c(N(C([H])([H])[H])C([H])([H])[H])n([H])c([H])nc1=S']","['[#7]1:[#6](-[#7](-[#6@@](-[H])(-[H])-[H])-[#6@@](-[H])(-[H])-[H]):[#6](:[#6](:[#7]:[#6]:1-[H])-[#16]-[H])-[H]', '[#7]1:[#6](-[#7](-[#6@@](-[H])(-[H])-[H])-[#6@@](-[H])(-[H])-[H]):[#6](:[#6](:[#7](:[#6]:1-[H])-[H])=[#16])-[H]', '[#7]1(:[#6](-[#7](-[#6@@](-[H])(-[H])-[H])-[#6@@](-[H])(-[H])-[H]):[#6](:[#6](:[#7]:[#6]:1-[H])=[#16])-[H])-[H]']","['InChI=1S/C6H9N3S/c1-9(2)5-3-6(10)8-4-7-5/h3-4H,1-2H3,(H,7,8,10)']",['CEFLCPCPLVTQLS-UHFFFAOYSA-N']
4dimethylamino6hydroxypyrimidine_cation->neut,1.22,4-dimethylamino-6-hydroxypyrimidine,"Aust. J. Chem., 1965, 18, 559-68","['[H]Oc1nc([H])nc(N(C([H])([H])[H])C([H])([H])[H])c1[H]', '[H]c1c(N(C([H])([H])[H])C([H])([H])[H])nc([H])n([H])c1=O', '[H]c1c(N(C([H])([H])[H])C([H])([H])[H])n([H])c([H])nc1=O']","['[#7]1:[#6](-[#7](-[#6@@](-[H])(-[H])-[H])-[#6@@](-[H])(-[H])-[H]):[#6](:[#6](:[#7]:[#6]:1-[H])-[#8]-[H])-[H]', '[#7]1:[#6](-[#7](-[#6@@](-[H])(-[H])-[H])-[#6@@](-[H])(-[H])-[H]):[#6](:[#6](:[#7](:[#6]:1-[H])-[H])=[#8])-[H]', '[#7]1(:[#6](-[#7](-[#6@@](-[H])(-[H])-[H])-[#6@@](-[H])(-[H])-[H]):[#6](:[#6](:[#7]:[#6]:1-[H])=[#8])-[H])-[H]']","['InChI=1S/C6H9N3O/c1-9(2)5-3-6(10)8-4-7-5/h3-4H,1-2H3,(H,7,8,10)']",['SGKXLTBPIIMZJM-UHFFFAOYSA-N']
4dimethylamino6hydroxypyrimidine_neut->an,10.42,4-dimethylamino-6-hydroxypyrimidine,"Aust. J. Chem., 1965, 18, 559-68","['[H]Oc1nc([H])nc(N(C([H])([H])[H])C([H])([H])[H])c1[H]', '[H]c1c(N(C([H])([H])[H])C([H])([H])[H])nc([H])n([H])c1=O', '[H]c1c(N(C([H])([H])[H])C([H])([H])[H])n([H])c([H])nc1=O']","['[#7]1:[#6](-[#7](-[#6@@](-[H])(-[H])-[H])-[#6@@](-[H])(-[H])-[H]):[#6](:[#6](:[#7]:[#6]:1-[H])-[#8]-[H])-[H]', '[#7]1:[#6](-[#7](-[#6@@](-[H])(-[H])-[H])-[#6@@](-[H])(-[H])-[H]):[#6](:[#6](:[#7](:[#6]:1-[H])-[H])=[#8])-[H]', '[#7]1(:[#6](-[#7](-[#6@@](-[H])(-[H])-[H])-[#6@@](-[H])(-[H])-[H]):[#6](:[#6](:[#7]:[#6]:1-[H])=[#8])-[H])-[H]']","['InChI=1S/C6H9N3O/c1-9(2)5-3-6(10)8-4-7-5/h3-4H,1-2H3,(H,7,8,10)']",['SGKXLTBPIIMZJM-UHFFFAOYSA-N']
4dimethylamino2methylthiopyrimidine_cation->neut,5.73,4-dimethylamino-2-methylthiopyrimidine,"Aust. J. Chem., 1965, 18, 559-68",['[H]c1nc(SC([H])([H])[H])nc(N(C([H])([H])[H])C([H])([H])[H])c1[H]'],['[#7]1:[#6](-[#7](-[#6@@](-[H])(-[H])-[H])-[#6@@](-[H])(-[H])-[H]):[#6](:[#6](:[#7]:[#6]:1-[#16]-[#6@@](-[H])(-[H])-[H])-[H])-[H]'],"['InChI=1S/C7H11N3S/c1-10(2)6-4-5-8-7(9-6)11-3/h4-5H,1-3H3']",['BDIZUYDPTVTWCZ-UHFFFAOYSA-N']
4dimethylamino2mercaptopyrimidine_cation->neut,2.4,4-dimethylamino-2-mercaptopyrimidine,"Aust. J. Chem., 1965, 18, 559-68","['[H]Sc1nc([H])c([H])c(N(C([H])([H])[H])C([H])([H])[H])n1', '[H]c1c(N(C([H])([H])[H])C([H])([H])[H])nc(=S)n([H])c1[H]', '[H]c1nc(=S)n([H])c(N(C([H])([H])[H])C([H])([H])[H])c1[H]']","['[#7]1:[#6](-[#7](-[#6@@](-[H])(-[H])-[H])-[#6@@](-[H])(-[H])-[H]):[#6](:[#6](:[#7]:[#6]:1-[#16]-[H])-[H])-[H]', '[#7]1:[#6](-[#7](-[#6@@](-[H])(-[H])-[H])-[#6@@](-[H])(-[H])-[H]):[#6](:[#6](:[#7](:[#6]:1=[#16])-[H])-[H])-[H]', '[#7]1(:[#6](-[#7](-[#6@@](-[H])(-[H])-[H])-[#6@@](-[H])(-[H])-[H]):[#6](:[#6](:[#7]:[#6]:1=[#16])-[H])-[H])-[H]']","['InChI=1S/C6H9N3S/c1-9(2)5-3-4-7-6(10)8-5/h3-4H,1-2H3,(H,7,8,10)']",['ABVKWCGYZIOYLM-UHFFFAOYSA-N']
4dimethylamino2mercaptopyrimidine_neut->an,11.18,4-dimethylamino-2-mercaptopyrimidine,"Aust. J. Chem., 1965, 18, 559-68","['[H]Sc1nc([H])c([H])c(N(C([H])([H])[H])C([H])([H])[H])n1', '[H]c1c(N(C([H])([H])[H])C([H])([H])[H])nc(=S)n([H])c1[H]', '[H]c1nc(=S)n([H])c(N(C([H])([H])[H])C([H])([H])[H])c1[H]']","['[#7]1:[#6](-[#7](-[#6@@](-[H])(-[H])-[H])-[#6@@](-[H])(-[H])-[H]):[#6](:[#6](:[#7]:[#6]:1-[#16]-[H])-[H])-[H]', '[#7]1:[#6](-[#7](-[#6@@](-[H])(-[H])-[H])-[#6@@](-[H])(-[H])-[H]):[#6](:[#6](:[#7](:[#6]:1=[#16])-[H])-[H])-[H]', '[#7]1(:[#6](-[#7](-[#6@@](-[H])(-[H])-[H])-[#6@@](-[H])(-[H])-[H]):[#6](:[#6](:[#7]:[#6]:1=[#16])-[H])-[H])-[H]']","['InChI=1S/C6H9N3S/c1-9(2)5-3-4-7-6(10)8-5/h3-4H,1-2H3,(H,7,8,10)']",['ABVKWCGYZIOYLM-UHFFFAOYSA-N']
4amino6methylthiopyrimidine_cation->neut,3.94,4-amino-6-methylthiopyrimidine,"Aust. J. Chem., 1965, 18, 559-68",['[H]c1nc(SC([H])([H])[H])c([H])c(N([H])[H])n1'],['[#7]1:[#6](-[#7](-[H])-[H]):[#6](:[#6](:[#7]:[#6]:1-[H])-[#16]-[#6@@](-[H])(-[H])-[H])-[H]'],"['InChI=1S/C5H7N3S/c1-9-5-2-4(6)7-3-8-5/h2-3H,1H3,(H2,6,7,8)']",['ZTPARTFFNQLVSF-UHFFFAOYSA-N']
4amino6mercaptopyrimidine_cation->neut,0.24,4-amino-6-mercaptopyrimidine,"Aust. J. Chem., 1965, 18, 559-68","['[H]Sc1nc([H])nc(N([H])[H])c1[H]', '[H]c1c(N([H])[H])nc([H])n([H])c1=S', '[H]c1c(N([H])[H])n([H])c([H])nc1=S']","['[#7]1:[#6](-[#7](-[H])-[H]):[#6](:[#6](:[#7]:[#6]:1-[H])-[#16]-[H])-[H]', '[#7]1:[#6](-[#7](-[H])-[H]):[#6](:[#6](:[#7](:[#6]:1-[H])-[H])=[#16])-[H]', '[#7]1(:[#6](-[#7](-[H])-[H]):[#6](:[#6](:[#7]:[#6]:1-[H])=[#16])-[H])-[H]']","['InChI=1S/C4H5N3S/c5-3-1-4(8)7-2-6-3/h1-2H,(H3,5,6,7,8)']",['XDIZJOWPBYQONT-UHFFFAOYSA-N']
4amino6mercaptopyrimidine_neut->an,9.25,4-amino-6-mercaptopyrimidine,"Aust. J. Chem., 1965, 18, 559-68","['[H]Sc1nc([H])nc(N([H])[H])c1[H]', '[H]c1c(N([H])[H])nc([H])n([H])c1=S', '[H]c1c(N([H])[H])n([H])c([H])nc1=S']","['[#7]1:[#6](-[#7](-[H])-[H]):[#6](:[#6](:[#7]:[#6]:1-[H])-[#16]-[H])-[H]', '[#7]1:[#6](-[#7](-[H])-[H]):[#6](:[#6](:[#7](:[#6]:1-[H])-[H])=[#16])-[H]', '[#7]1(:[#6](-[#7](-[H])-[H]):[#6](:[#6](:[#7]:[#6]:1-[H])=[#16])-[H])-[H]']","['InChI=1S/C4H5N3S/c5-3-1-4(8)7-2-6-3/h1-2H,(H3,5,6,7,8)']",['XDIZJOWPBYQONT-UHFFFAOYSA-N']
4amino6hydroxypyrimidine_cation->neut,1.36,4-amino-6-hydroxypyrimidine,"Aust. J. Chem., 1965, 18, 559-68","['[H]Oc1nc([H])nc(N([H])[H])c1[H]', '[H]c1c(N([H])[H])nc([H])n([H])c1=O', '[H]c1c(N([H])[H])n([H])c([H])nc1=O']","['[#7]1:[#6](-[#7](-[H])-[H]):[#6](:[#6](:[#7]:[#6]:1-[H])-[#8]-[H])-[H]', '[#7]1:[#6](-[#7](-[H])-[H]):[#6](:[#6](:[#7](:[#6]:1-[H])-[H])=[#8])-[H]', '[#7]1(:[#6](-[#7](-[H])-[H]):[#6](:[#6](:[#7]:[#6]:1-[H])=[#8])-[H])-[H]']","['InChI=1S/C4H5N3O/c5-3-1-4(8)7-2-6-3/h1-2H,(H3,5,6,7,8)']",['HFMLLTVIMFEQRE-UHFFFAOYSA-N']
4amino6hydroxypyrimidine_neut->an,10.05,4-amino-6-hydroxypyrimidine,"Aust. J. Chem., 1965, 18, 559-68","['[H]Oc1nc([H])nc(N([H])[H])c1[H]', '[H]c1c(N([H])[H])nc([H])n([H])c1=O', '[H]c1c(N([H])[H])n([H])c([H])nc1=O']","['[#7]1:[#6](-[#7](-[H])-[H]):[#6](:[#6](:[#7]:[#6]:1-[H])-[#8]-[H])-[H]', '[#7]1:[#6](-[#7](-[H])-[H]):[#6](:[#6](:[#7](:[#6]:1-[H])-[H])=[#8])-[H]', '[#7]1(:[#6](-[#7](-[H])-[H]):[#6](:[#6](:[#7]:[#6]:1-[H])=[#8])-[H])-[H]']","['InChI=1S/C4H5N3O/c5-3-1-4(8)7-2-6-3/h1-2H,(H3,5,6,7,8)']",['HFMLLTVIMFEQRE-UHFFFAOYSA-N']
4amino2methylthiopyrimidine_cation->neut,4.91,4-amino-2-methylthiopyrimidine,"Aust. J. Chem., 1965, 18, 559-68",['[H]c1nc(SC([H])([H])[H])nc(N([H])[H])c1[H]'],['[#7]1:[#6](-[#7](-[H])-[H]):[#6](:[#6](:[#7]:[#6]:1-[#16]-[#6@@](-[H])(-[H])-[H])-[H])-[H]'],"['InChI=1S/C5H7N3S/c1-9-5-7-3-2-4(6)8-5/h2-3H,1H3,(H2,6,7,8)']",['HGGXLEAHOVIYKT-UHFFFAOYSA-N']
4amino2methoxypyrimidine_cation->neut,5.53,4-amino-2-methoxypyrimidine,"Aust. J. Chem., 1965, 18, 559-68",['[H]c1nc(OC([H])([H])[H])nc(N([H])[H])c1[H]'],['[#8](-[#6]1:[#7]:[#6](-[#7](-[H])-[H]):[#6](:[#6](:[#7]:1)-[H])-[H])-[#6@@](-[H])(-[H])-[H]'],"['InChI=1S/C5H7N3O/c1-9-5-7-3-2-4(6)8-5/h2-3H,1H3,(H2,6,7,8)']",['DHYLZDVDOQLEAQ-UHFFFAOYSA-N']
4amino2mercaptopyrimidine_cation->neut,2.4,4-amino-2-mercaptopyrimidine,"Aust. J. Chem., 1965, 18, 559-68","['[H]c1nc(=S)n([H])c(N([H])[H])c1[H]', '[H]c1c(N([H])[H])nc(=S)n([H])c1[H]']","['[#7]1(:[#6](-[#7](-[H])-[H]):[#6](:[#6](:[#7]:[#6]:1=[#16])-[H])-[H])-[H]', '[#7]1:[#6](-[#7](-[H])-[H]):[#6](:[#6](:[#7](:[#6]:1=[#16])-[H])-[H])-[H]']","['InChI=1S/C4H5N3S/c5-3-1-2-6-4(8)7-3/h1-2H,(H3,5,6,7,8)']",['DCPSTSVLRXOYGS-UHFFFAOYSA-N']
4amino2mercaptopyrimidine_neut->an,11.18,4-amino-2-mercaptopyrimidine,"Aust. J. Chem., 1965, 18, 559-68","['[H]c1nc(=S)n([H])c(N([H])[H])c1[H]', '[H]c1c(N([H])[H])nc(=S)n([H])c1[H]']","['[#7]1(:[#6](-[#7](-[H])-[H]):[#6](:[#6](:[#7]:[#6]:1=[#16])-[H])-[H])-[H]', '[#7]1:[#6](-[#7](-[H])-[H]):[#6](:[#6](:[#7](:[#6]:1=[#16])-[H])-[H])-[H]']","['InChI=1S/C4H5N3S/c5-3-1-2-6-4(8)7-3/h1-2H,(H3,5,6,7,8)']",['DCPSTSVLRXOYGS-UHFFFAOYSA-N']
2thiouracil_neut->an,7.46,2-thiouracil,"J. Pharm. Sci. 59,1970, 1383","['[H]Oc1c([H])c([H])nc(=S)n1[H]', '[H]Oc1nc(=S)n([H])c([H])c1[H]', '[H]c1c([H])n([H])c(=S)n([H])c1=O']","['[#16]=[#6]1:[#7](:[#6](-[#8]-[H]):[#6](:[#6](:[#7]:1)-[H])-[H])-[H]', '[#16]=[#6]1:[#7]:[#6](-[#8]-[H]):[#6](:[#6](:[#7]:1-[H])-[H])-[H]', '[#16]=[#6]1:[#7](:[#6](=[#8]):[#6](:[#6](:[#7]:1-[H])-[H])-[H])-[H]']","['InChI=1S/C4H4N2OS/c7-3-1-2-5-4(8)6-3/h1-2H,(H2,5,6,7,8)']",['ZEMGGZBWXRYJHK-UHFFFAOYSA-N']
2dimethylamino4methylthiopyrimidine_cation->neut,5.04,2-dimethylamino-4-methylthiopyrimidine,"Aust. J. Chem., 1965, 18, 559-68",['[H]c1nc(N(C([H])([H])[H])C([H])([H])[H])nc(SC([H])([H])[H])c1[H]'],['[#7]1:[#6](:[#6](:[#6](:[#7]:[#6]:1-[#7](-[#6@@](-[H])(-[H])-[H])-[#6@@](-[H])(-[H])-[H])-[H])-[H])-[#16]-[#6@@](-[H])(-[H])-[H]'],"['InChI=1S/C7H11N3S/c1-10(2)7-8-5-4-6(9-7)11-3/h4-5H,1-3H3']",['PKDTYQLYIIUBDT-UHFFFAOYSA-N']
2dimethylamino4methoxypyrimidine_cation->neut,5.87,2-dimethylamino-4-methoxypyrimidine,"Aust. J. Chem., 1965, 18, 559-68",['[H]c1nc(N(C([H])([H])[H])C([H])([H])[H])nc(OC([H])([H])[H])c1[H]'],['[#7]1:[#6](:[#6](:[#6](:[#7]:[#6]:1-[#7](-[#6@@](-[H])(-[H])-[H])-[#6@@](-[H])(-[H])-[H])-[H])-[H])-[#8]-[#6@@](-[H])(-[H])-[H]'],"['InChI=1S/C7H11N3O/c1-10(2)7-8-5-4-6(9-7)11-3/h4-5H,1-3H3']",['FKMDHVOHDANIDG-UHFFFAOYSA-N']
2dimethylamino4hydroxypyrimidine_cation->neut,3.68,2-dimethylamino-4-hydroxypyrimidine,"Aust. J. Chem., 1965, 18, 559-68","['[H]c1nc(N(C([H])([H])[H])C([H])([H])[H])n([H])c(=O)c1[H]', '[H]Oc1nc(N(C([H])([H])[H])C([H])([H])[H])nc([H])c1[H]', '[H]c1c([H])n([H])c(N(C([H])([H])[H])C([H])([H])[H])nc1=O']","['[#7]1(:[#6](:[#6](:[#6](:[#7]:[#6]:1-[#7](-[#6@@](-[H])(-[H])-[H])-[#6@@](-[H])(-[H])-[H])-[H])-[H])=[#8])-[H]', '[#7]1:[#6](:[#6](:[#6](:[#7]:[#6]:1-[#7](-[#6@@](-[H])(-[H])-[H])-[#6@@](-[H])(-[H])-[H])-[H])-[H])-[#8]-[H]', '[#7]1:[#6](:[#6](:[#6](:[#7](:[#6]:1-[#7](-[#6@@](-[H])(-[H])-[H])-[#6@@](-[H])(-[H])-[H])-[H])-[H])-[H])=[#8]']","['InChI=1S/C6H9N3O/c1-9(2)6-7-4-3-5(10)8-6/h3-4H,1-2H3,(H,7,8,10)']",['MIEQNBVNRFGOQC-UHFFFAOYSA-N']
2dimethylamino4hydroxypyrimidine_neut->an,9.89,2-dimethylamino-4-hydroxypyrimidine,"Aust. J. Chem., 1965, 18, 559-68","['[H]c1nc(N(C([H])([H])[H])C([H])([H])[H])n([H])c(=O)c1[H]', '[H]Oc1nc(N(C([H])([H])[H])C([H])([H])[H])nc([H])c1[H]', '[H]c1c([H])n([H])c(N(C([H])([H])[H])C([H])([H])[H])nc1=O']","['[#7]1(:[#6](:[#6](:[#6](:[#7]:[#6]:1-[#7](-[#6@@](-[H])(-[H])-[H])-[#6@@](-[H])(-[H])-[H])-[H])-[H])=[#8])-[H]', '[#7]1:[#6](:[#6](:[#6](:[#7]:[#6]:1-[#7](-[#6@@](-[H])(-[H])-[H])-[#6@@](-[H])(-[H])-[H])-[H])-[H])-[#8]-[H]', '[#7]1:[#6](:[#6](:[#6](:[#7](:[#6]:1-[#7](-[#6@@](-[H])(-[H])-[H])-[#6@@](-[H])(-[H])-[H])-[H])-[H])-[H])=[#8]']","['InChI=1S/C6H9N3O/c1-9(2)6-7-4-3-5(10)8-6/h3-4H,1-2H3,(H,7,8,10)']",['MIEQNBVNRFGOQC-UHFFFAOYSA-N']
2amino4methylthiopyrimidine_cation->neut,4.75,2-amino-4-methylthiopyrimidine,"Aust. J. Chem., 1965, 18, 559-68",['[H]c1nc(N([H])[H])nc(SC([H])([H])[H])c1[H]'],['[#7]1:[#6](:[#6](:[#6](:[#7]:[#6]:1-[#7](-[H])-[H])-[H])-[H])-[#16]-[#6@@](-[H])(-[H])-[H]'],"['InChI=1S/C5H7N3S/c1-9-4-2-3-7-5(6)8-4/h2-3H,1H3,(H2,6,7,8)']",['DTGVQKUDTNRETI-UHFFFAOYSA-N']
2amino4methoxypyrimidine_cation->neut,5.53,2-amino-4-methylthoxypyrimidine,"Aust. J. Chem., 1965, 18, 559-68",['[H]c1nc(N([H])[H])nc(OC([H])([H])[H])c1[H]'],['[#7]1:[#6](:[#6](:[#6](:[#7]:[#6]:1-[#7](-[H])-[H])-[H])-[H])-[#8]-[#6@@](-[H])(-[H])-[H]'],"['InChI=1S/C5H7N3O/c1-9-4-2-3-7-5(6)8-4/h2-3H,1H3,(H2,6,7,8)']",['YNXLSFXQTQKQEF-UHFFFAOYSA-N']
2amino4mercaptopyrimidine_cation->neut,2.86,2-amino-4-mercaptopyrimidine,"Aust. J. Chem., 1965, 18, 559-68","['[H]c1c([H])n([H])c(N([H])[H])nc1=S', '[H]Sc1nc(N([H])[H])nc([H])c1[H]', '[H]c1nc(N([H])[H])n([H])c(=S)c1[H]']","['[#7]1:[#6](:[#6](:[#6](:[#7](:[#6]:1-[#7](-[H])-[H])-[H])-[H])-[H])=[#16]', '[#7]1:[#6](:[#6](:[#6](:[#7]:[#6]:1-[#7](-[H])-[H])-[H])-[H])-[#16]-[H]', '[#7]1(:[#6](:[#6](:[#6](:[#7]:[#6]:1-[#7](-[H])-[H])-[H])-[H])=[#16])-[H]']","['InChI=1S/C4H5N3S/c5-4-6-2-1-3(8)7-4/h1-2H,(H3,5,6,7,8)']",['GFVZMGHCWGEFQF-UHFFFAOYSA-N']
2amino4mercaptopyrimidine_neut->an,8.03,2-amino-4-mercaptopyrimidine,"Aust. J. Chem., 1965, 18, 559-68","['[H]c1c([H])n([H])c(N([H])[H])nc1=S', '[H]Sc1nc(N([H])[H])nc([H])c1[H]', '[H]c1nc(N([H])[H])n([H])c(=S)c1[H]']","['[#7]1:[#6](:[#6](:[#6](:[#7](:[#6]:1-[#7](-[H])-[H])-[H])-[H])-[H])=[#16]', '[#7]1:[#6](:[#6](:[#6](:[#7]:[#6]:1-[#7](-[H])-[H])-[H])-[H])-[#16]-[H]', '[#7]1(:[#6](:[#6](:[#6](:[#7]:[#6]:1-[#7](-[H])-[H])-[H])-[H])=[#16])-[H]']","['InChI=1S/C4H5N3S/c5-4-6-2-1-3(8)7-4/h1-2H,(H3,5,6,7,8)']",['GFVZMGHCWGEFQF-UHFFFAOYSA-N']
2dimethylamino4mercaptopyrimidine_cation->neut,2.2,2-dimethylamino-4-mercaptopyrimidine,"Aust. J. Chem., 1965, 18, 559-68","['[H]c1nc(N(C([H])([H])[H])C([H])([H])[H])n([H])c(=S)c1[H]', '[H]Sc1nc(N(C([H])([H])[H])C([H])([H])[H])nc([H])c1[H]', '[H]c1c([H])n([H])c(N(C([H])([H])[H])C([H])([H])[H])nc1=S']","['[#7]1(:[#6](:[#6](:[#6](:[#7]:[#6]:1-[#7](-[#6@@](-[H])(-[H])-[H])-[#6@@](-[H])(-[H])-[H])-[H])-[H])=[#16])-[H]', '[#7]1:[#6](:[#6](:[#6](:[#7]:[#6]:1-[#7](-[#6@@](-[H])(-[H])-[H])-[#6@@](-[H])(-[H])-[H])-[H])-[H])-[#16]-[H]', '[#7]1:[#6](:[#6](:[#6](:[#7](:[#6]:1-[#7](-[#6@@](-[H])(-[H])-[H])-[#6@@](-[H])(-[H])-[H])-[H])-[H])-[H])=[#16]']","['InChI=1S/C6H9N3S/c1-9(2)6-7-4-3-5(10)8-6/h3-4H,1-2H3,(H,7,8,10)']",['XESQCAPTCBWTSN-UHFFFAOYSA-N']
2dimethylamino4mercaptopyrimidine_neut->an,8.02,2-dimethylamino-4-mercaptopyrimidine,"Aust. J. Chem., 1965, 18, 559-68","['[H]c1nc(N(C([H])([H])[H])C([H])([H])[H])n([H])c(=S)c1[H]', '[H]Sc1nc(N(C([H])([H])[H])C([H])([H])[H])nc([H])c1[H]', '[H]c1c([H])n([H])c(N(C([H])([H])[H])C([H])([H])[H])nc1=S']","['[#7]1(:[#6](:[#6](:[#6](:[#7]:[#6]:1-[#7](-[#6@@](-[H])(-[H])-[H])-[#6@@](-[H])(-[H])-[H])-[H])-[H])=[#16])-[H]', '[#7]1:[#6](:[#6](:[#6](:[#7]:[#6]:1-[#7](-[#6@@](-[H])(-[H])-[H])-[#6@@](-[H])(-[H])-[H])-[H])-[H])-[#16]-[H]', '[#7]1:[#6](:[#6](:[#6](:[#7](:[#6]:1-[#7](-[#6@@](-[H])(-[H])-[H])-[#6@@](-[H])(-[H])-[H])-[H])-[H])-[H])=[#16]']","['InChI=1S/C6H9N3S/c1-9(2)6-7-4-3-5(10)8-6/h3-4H,1-2H3,(H,7,8,10)']",['XESQCAPTCBWTSN-UHFFFAOYSA-N']
4mercaptopyrimidine_neut->an,6.9,4-mercaptopyrimidine,"Aust. J. Chem., 1965, 18, 559-68","['[H]Sc1nc([H])nc([H])c1[H]', '[H]c1nc([H])n([H])c(=S)c1[H]', '[H]c1c([H])n([H])c([H])nc1=S']","['[#6]1(:[#7]:[#6](:[#6](:[#6](-[H]):[#7]:1)-[H])-[#16]-[H])-[H]', '[#6]1(:[#7](:[#6](:[#6](:[#6](-[H]):[#7]:1)-[H])=[#16])-[H])-[H]', '[#6]1(:[#7]:[#6](:[#6](:[#6](-[H]):[#7]:1-[H])-[H])=[#16])-[H]']","['InChI=1S/C4H4N2S/c7-4-1-2-5-3-6-4/h1-3H,(H,5,6,7)']",['MGAXHFMCFLLMNG-UHFFFAOYSA-N']
2mercaptopyrimidine_neut->an,7.1,2-mercaptopyrimidine,"Aust. J. Chem., 1965, 18, 559-68","['[H]Sc1nc([H])c([H])c([H])n1', '[H]c1nc(=S)n([H])c([H])c1[H]']","['[#6]1(:[#7]:[#6](:[#6](:[#6](-[H]):[#7]:1)-[H])-[H])-[#16]-[H]', '[#6]1(:[#7]:[#6](:[#6](:[#6](-[H]):[#7]:1-[H])-[H])-[H])=[#16]']","['InChI=1S/C4H4N2S/c7-4-5-2-1-3-6-4/h1-3H,(H,5,6,7)']",['HBCQSNAFLVXVAY-UHFFFAOYSA-N']