compn,pKa,correct name,reference,smiles,smarts,inchi,inchiKey
trans4cyclohexene12dicarboxylic_an->2an,5.81,"trans-4-cyclohexene-1,2-dicarboxylic",Lange's handbook of chemistry,['[H]OC(=O)[C@]1([H])C([H])([H])C([H])=C([H])C([H])([H])[C@@]1([H])C(=O)O[H]'],['[#6]1(-[#6@](-[#6@@](-[#6@](-[#6@@](-[#6]=1-[H])(-[H])-[H])(-[H])-[#6](=[#8])-[#8]-[H])(-[H])-[#6](=[#8])-[#8]-[H])(-[H])-[H])-[H]'],"['InChI=1S/C8H10O4/c9-7(10)5-3-1-2-4-6(5)8(11)12/h1-2,5-6H,3-4H2,(H,9,10)(H,11,12)/t5-,6-/m1/s1']",['ILUAAIDVFMVTAU-PHDIDXHHSA-N']
trans4cyclohexene12dicarboxylic_neut->an,3.95,"trans-4-cyclohexene-1,2-dicarboxylic",Lange's handbook of chemistry,['[H]OC(=O)[C@]1([H])C([H])([H])C([H])=C([H])C([H])([H])[C@@]1([H])C(=O)O[H]'],['[#6]1(-[#6@](-[#6@@](-[#6@](-[#6@@](-[#6]=1-[H])(-[H])-[H])(-[H])-[#6](=[#8])-[#8]-[H])(-[H])-[#6](=[#8])-[#8]-[H])(-[H])-[H])-[H]'],"['InChI=1S/C8H10O4/c9-7(10)5-3-1-2-4-6(5)8(11)12/h1-2,5-6H,3-4H2,(H,9,10)(H,11,12)/t5-,6-/m1/s1']",['ILUAAIDVFMVTAU-PHDIDXHHSA-N']
trans4hydroxyproline_cation->neut,1.82,trans-4-hydroxyproline,Lange's handbook of chemistry,['[H]O[C@]1([H])C([H])([H])[C@@]([H])(C(=O)[O-])[N+]([H])([H])C1([H])[H]'],['[#8](-[#6@@]1(-[#6@](-[#6@](-[#7@+](-[#6@]-1(-[H])-[H])(-[H])-[H])(-[#6](=[#8])-[#8-])-[H])(-[H])-[H])-[H])-[H]'],"['InChI=1S/C5H9NO3/c7-3-1-4(5(8)9)6-2-3/h3-4,6-7H,1-2H2,(H,8,9)/t3-,4+/m1/s1']",['PMMYEEVYMWASQN-DMTCNVIQSA-N']
trans4hydroxyproline_neut->an,9.66,trans-4-hydroxyproline,Lange's handbook of chemistry,['[H]O[C@]1([H])C([H])([H])[C@@]([H])(C(=O)[O-])[N+]([H])([H])C1([H])[H]'],['[#8](-[#6@@]1(-[#6@](-[#6@](-[#7@+](-[#6@]-1(-[H])-[H])(-[H])-[H])(-[#6](=[#8])-[#8-])-[H])(-[H])-[H])-[H])-[H]'],"['InChI=1S/C5H9NO3/c7-3-1-4(5(8)9)6-2-3/h3-4,6-7H,1-2H2,(H,8,9)/t3-,4+/m1/s1']",['PMMYEEVYMWASQN-DMTCNVIQSA-N']
transchloroacrylic_neut->an,3.32,trans-3-chloroacrylate,Lange's handbook of chemistry,['[H]OC(=O)/C([H])=C(\\[H])Cl'],['[#8](-[#6](=[#8])/[#6](=[#6](\\[H])-[#17])-[H])-[H]'],"['InChI=1S/C3H3ClO2/c4-2-1-3(5)6/h1-2H,(H,5,6)/b2-1+']",['MHMUCYJKZUZMNJ-OWOJBTEDSA-N']
transcinnamic_neut->an,4.45,trans-cinnamic acid,profiles of drug substances excipiends and related (A),['[H]OC(=O)/C([H])=C(\\[H])c1c([H])c([H])c([H])c([H])c1[H]'],['[#6]1(:[#6](:[#6](:[#6](:[#6](:[#6]:1-[H])-[H])/[#6](=[#6](\\[H])-[#6](=[#8])-[#8]-[H])-[H])-[H])-[H])-[H]'],"['InChI=1S/C9H8O2/c10-9(11)7-6-8-4-2-1-3-5-8/h1-7H,(H,10,11)/b7-6+']",['WBYWAXJHAXSJNI-VOTSOKGWSA-N']
transcrotonic_neut->an,4.68,trans-crotonic acid,Lange's handbook of chemistry,['[H]OC(=O)/C([H])=C(\\[H])C([H])([H])[H]'],['[#6](=[#6](/[H])-[#6](=[#8])-[#8]-[H])(\\[H])-[#6@@](-[H])(-[H])-[H]'],"['InChI=1S/C4H6O2/c1-2-3-4(5)6/h2-3H,1H3,(H,5,6)/b3-2+']",['LDHQCZJRKDOVOX-NSCUHMNNSA-N']
transcyclohexanediamine_2cation->cation,6.34,"trans-1,2-cyclohexanediamine",Lange's handbook of chemistry,['[H]N([H])[C@]1([H])C([H])([H])C([H])([H])C([H])([H])C([H])([H])[C@@]1([H])N([H])[H]'],['[H]-[#6@]1(-[#6@@](-[#6@](-[#6@](-[#6@](-[#6@@]-1(-[H])-[#7](-[H])-[H])(-[H])-[H])(-[H])-[H])(-[H])-[H])(-[H])-[H])-[#7](-[H])-[H]'],"['InChI=1S/C6H14N2/c7-5-3-1-2-4-6(5)8/h5-6H,1-4,7-8H2/t5-,6-/m1/s1']",['SSJXIUAHEKJCMH-PHDIDXHHSA-N']
transcyclohexanediamine_cation->neut,9.74,"trans-1,2-cyclohexanediamine",Lange's handbook of chemistry,['[H]N([H])[C@]1([H])C([H])([H])C([H])([H])C([H])([H])C([H])([H])[C@@]1([H])N([H])[H]'],['[H]-[#6@]1(-[#6@@](-[#6@](-[#6@](-[#6@](-[#6@@]-1(-[H])-[#7](-[H])-[H])(-[H])-[H])(-[H])-[H])(-[H])-[H])(-[H])-[H])-[#7](-[H])-[H]'],"['InChI=1S/C6H14N2/c7-5-3-1-2-4-6(5)8/h5-6H,1-4,7-8H2/t5-,6-/m1/s1']",['SSJXIUAHEKJCMH-PHDIDXHHSA-N']
transethyleneoxidedicarboxylic_an->2an,3.25,"trans-2,3-oxiranedicarboxylic acid",Lange's handbook of chemistry,['[H]OC(=O)[C@@]1([H])O[C@]1([H])C(=O)O[H]'],['[#8]1-[#6@](-[#6@@]-1(-[H])-[#6](=[#8])-[#8]-[H])(-[H])-[#6](=[#8])-[#8]-[H]'],"['InChI=1S/C4H4O5/c5-3(6)1-2(9-1)4(7)8/h1-2H,(H,5,6)(H,7,8)/t1-,2-/m0/s1']",['DCEMCPAKSGRHCN-LWMBPPNESA-N']
transethyleneoxidedicarboxylic_neut->an,1.93,"trans-2,3-oxiranedicarboxylic acid",Lange's handbook of chemistry,['[H]OC(=O)[C@@]1([H])O[C@]1([H])C(=O)O[H]'],['[#8]1-[#6@](-[#6@@]-1(-[H])-[#6](=[#8])-[#8]-[H])(-[H])-[#6](=[#8])-[#8]-[H]'],"['InChI=1S/C4H4O5/c5-3(6)1-2(9-1)4(7)8/h1-2H,(H,5,6)(H,7,8)/t1-,2-/m0/s1']",['DCEMCPAKSGRHCN-LWMBPPNESA-N']
triacetylmethane_neut->an,5.85,triacetylmethane,Tetrahedron 57 (2001) 5923-5930 ,['[H]C([H])([H])C(=O)C([H])(C(=O)C([H])([H])[H])C(=O)C([H])([H])[H]'],['[#8]=[#6](-[#6@](-[#6](=[#8])-[#6@](-[H])(-[H])-[H])(-[#6](=[#8])-[#6@@](-[H])(-[H])-[H])-[H])-[#6@](-[H])(-[H])-[H]'],"['InChI=1S/C7H10O3/c1-4(8)7(5(2)9)6(3)10/h7H,1-3H3']",['AUZFRUHVDNDVJI-UHFFFAOYSA-N']
tribromoacetic_neut->an,0.72,tribromoacetic acid,https://doi.org/10.1139/v68-487,['[H]OC(=O)C(Br)(Br)Br'],['[#35]-[#6@](-[#35])(-[#35])-[#6](-[#8]-[H])=[#8]'],"['InChI=1S/C2HBr3O2/c3-2(4,5)1(6)7/h(H,6,7)']",['QIONYIKHPASLHO-UHFFFAOYSA-N']
trichloroacetic_neut->an,0.52,trichloroacetic acid,Lange's handbook of chemistry,['[H]OC(=O)C(Cl)(Cl)Cl'],['[#6](=[#8])(-[#8]-[H])-[#6@@](-[#17])(-[#17])-[#17]'],"['InChI=1S/C2HCl3O2/c3-2(4,5)1(6)7/h(H,6,7)']",['YNJBWRMUSHSURL-UHFFFAOYSA-N']
trichloroacrilic_neut->an,1.15,trichloroacrylic acid,Lange's handbook of chemistry,['[H]OC(=O)C(Cl)=C(Cl)Cl'],['[#6](=[#6](-[#6](=[#8])-[#8]-[H])-[#17])(-[#17])-[#17]'],"['InChI=1S/C3HCl3O2/c4-1(2(5)6)3(7)8/h(H,7,8)']",['WMUBNWIGNSIRDH-UHFFFAOYSA-N']
trichloroetanamine_cation->neut,5.47,"2,2,2-trichloroethanamine",10.1002/jcc.23068,['[H]N([H])C([H])([H])C(Cl)(Cl)Cl'],['[#1]-[#7](-[H])-[#6@@](-[H])(-[H])-[#6@](-[#17])(-[#17])-[#17]'],"['InChI=1S/C2H4Cl3N/c3-2(4,5)1-6/h1,6H2']",['FCLPGDSITYLYCH-UHFFFAOYSA-N']
trichloroethanol_neut->an,12.02,trichloroethanol,DOI: 10.1021/acs.jpca.7b03907,['[H]OC([H])([H])C(Cl)(Cl)Cl'],['[#8](-[H])-[#6@@](-[H])(-[H])-[#6@](-[#17])(-[#17])-[#17]'],"['InChI=1S/C2H3Cl3O/c3-2(4,5)1-6/h6H,1H2']",['KPWDGTGXUYRARH-UHFFFAOYSA-N']
trichloromethylphosphonic_neut->an,0.78,trichloromethylphosphonic acid,"M. Wozniak, G. Nowogrock, Bull. Soc. Chim. Gr. (1-4, Pt. 1) 1978, 153","['Cl[C-](Cl)Cl.[H]OP(#[O+])O[H]', '[H]OP(=O)(O[H])C(Cl)(Cl)Cl']","['[#15](-[#8]-[H])(-[#8]-[H])#[#8+].[#6-](-[#17])(-[#17])-[#17]', '[#8](-[#15@](-[#8]-[H])(=[#8])-[#6@@](-[#17])(-[#17])-[#17])-[H]']","['InChI=1S/CCl3.H2O3P/c2-1(3)4;1-4(2)3/h;1-2H/q-1;+1', 'InChI=1S/CH2Cl3O3P/c2-1(3,4)8(5,6)7/h(H2,5,6,7)']","['MTPZYKBXTNDHJQ-UHFFFAOYSA-N', 'NWEPJDPAVFDLBY-UHFFFAOYSA-N']"
trichloromethylphosphonic_an->2an,4.71,trichloromethylphosphonic acid,"D.J. Martin, C. E. Griffin, J. Organomet. Chem. 1, 292, (1964)","['Cl[C-](Cl)Cl.[H]OP(#[O+])O[H]', '[H]OP(=O)(O[H])C(Cl)(Cl)Cl']","['[#15](-[#8]-[H])(-[#8]-[H])#[#8+].[#6-](-[#17])(-[#17])-[#17]', '[#8](-[#15@](-[#8]-[H])(=[#8])-[#6@@](-[#17])(-[#17])-[#17])-[H]']","['InChI=1S/CCl3.H2O3P/c2-1(3)4;1-4(2)3/h;1-2H/q-1;+1', 'InChI=1S/CH2Cl3O3P/c2-1(3,4)8(5,6)7/h(H2,5,6,7)']","['MTPZYKBXTNDHJQ-UHFFFAOYSA-N', 'NWEPJDPAVFDLBY-UHFFFAOYSA-N']"
triethylamine_cation->neut,10.72,triethylamine,Lange's handbook of chemistry,['[H]C([H])([H])C([H])([H])N(C([H])([H])C([H])([H])[H])C([H])([H])C([H])([H])[H]'],['[#7](-[#6@@](-[#6@](-[H])(-[H])-[H])(-[H])-[H])(-[#6@](-[H])(-[H])-[#6@](-[H])(-[H])-[H])-[#6@](-[H])(-[H])-[#6@@](-[H])(-[H])-[H]'],"['InChI=1S/C6H15N/c1-4-7(5-2)6-3/h4-6H2,1-3H3']",['ZMANZCXQSJIPKH-UHFFFAOYSA-N']
trifluoroacetic_neut->an,0.5,trifluoroacetic acid,Lange's handbook of chemistry,['[H]OC(=O)C(F)(F)F'],['[#6](=[#8])(-[#8]-[H])-[#6@](-[#9])(-[#9])-[#9]'],"['InChI=1S/C2HF3O2/c3-2(4,5)1(6)7/h(H,6,7)']",['DTQVDTLACAAQTR-UHFFFAOYSA-N']
trifluoroacrilic_neut->an,1.79,perfluoroacrylic acid,Lange's handbook of chemistry,['[H]OC(=O)C(F)=C(F)F'],['[#6](=[#6](-[#6](=[#8])-[#8]-[H])-[#9])(-[#9])-[#9]'],"['InChI=1S/C3HF3O2/c4-1(2(5)6)3(7)8/h(H,7,8)']",['DVMSVWIURPPRBC-UHFFFAOYSA-N']
trifluoroethanol_neut->an,12.43,trifluoroethanol,DOI: 10.1021/acs.jpca.7b03907,['[H]OC([H])([H])C(F)(F)F'],['[#8](-[H])-[#6@@](-[H])(-[H])-[#6@](-[#9])(-[#9])-[#9]'],"['InChI=1S/C2H3F3O/c3-2(4,5)1-6/h6H,1H2']",['RHQDFWAXVIIEBN-UHFFFAOYSA-N']
trimethylamine_cation->neut,9.8,trimethylamine,Lange's handbook of chemistry,['[H]C([H])([H])N(C([H])([H])[H])C([H])([H])[H]'],['[H]-[#6@](-[H])(-[H])-[#7](-[#6@@](-[H])(-[H])-[H])-[#6@@](-[H])(-[H])-[H]'],['InChI=1S/C3H9N/c1-4(2)3/h1-3H3'],['GETQZCLCWQTVFV-UHFFFAOYSA-N']
trinitromethane_neut->an,0.06,trinitromethane,Tetrahedron 57 (2001) 5923-5930 ,['[H]C([N+](=O)[O-])([N+](=O)[O-])[N+](=O)[O-]'],['[#8]=[#7+](-[#8-])-[#6@](-[#7+](=[#8])-[#8-])(-[#7+](=[#8])-[#8-])-[H]'],['InChI=1S/CHN3O6/c5-2(6)1(3(7)8)4(9)10/h1H'],['LZGVDNRJCGPNDS-UHFFFAOYSA-N']
triphenylacetic_neut->an,3.96,triphenylacetic acid,Lange's handbook of chemistry,['[H]OC(=O)C(c1c([H])c([H])c([H])c([H])c1[H])(c1c([H])c([H])c([H])c([H])c1[H])c1c([H])c([H])c([H])c([H])c1[H]'],['[#6](-[#6@](-[#6]1:[#6](:[#6](:[#6](:[#6](:[#6]:1-[H])-[H])-[H])-[H])-[H])(-[#6]1:[#6](:[#6](:[#6](:[#6](:[#6]:1-[H])-[H])-[H])-[H])-[H])-[#6]1:[#6](:[#6](:[#6](:[#6](:[#6]:1-[H])-[H])-[H])-[H])-[H])(=[#8])-[#8]-[H]'],"['InChI=1S/C20H16O2/c21-19(22)20(16-10-4-1-5-11-16,17-12-6-2-7-13-17)18-14-8-3-9-15-18/h1-15H,(H,21,22)']",['DCYGAPKNVCQNOE-UHFFFAOYSA-N']
tromethamine_cation->neut,8.08,tromethamine,profiles of drug substances excipiends and related (U),['[H]OC([H])([H])C(N([H])[H])(C([H])([H])O[H])C([H])([H])O[H]'],['[#8](-[#6@@](-[#6@](-[#7](-[H])-[H])(-[#6@@](-[#8]-[H])(-[H])-[H])-[#6@](-[#8]-[H])(-[H])-[H])(-[H])-[H])-[H]'],"['InChI=1S/C4H11NO3/c5-4(1-6,2-7)3-8/h6-8H,1-3,5H2']",['LENZDBCJOHFCAS-UHFFFAOYSA-N']
tropacocaine_cation->neut,9.51,tropacocaine,profiles of drug substances excipiends and related (A),['[H]c1c([H])c([H])c(C(=O)O[C@@]2([H])C([H])([H])[C@@]3([H])N(C([H])([H])[H])[C@]([H])(C([H])([H])C3([H])[H])C2([H])[H])c([H])c1[H]'],['[#8](-[#6@@]1(-[#6@](-[#6@@]2(-[#7](-[#6@@](-[#6@](-[#6@@]-2(-[H])-[H])(-[H])-[H])(-[#6@@]-1(-[H])-[H])-[H])-[#6@](-[H])(-[H])-[H])-[H])(-[H])-[H])-[H])-[#6](=[#8])-[#6]1:[#6](:[#6](:[#6](:[#6](:[#6]:1-[H])-[H])-[H])-[H])-[H]'],"['InChI=1S/C15H19NO2/c1-16-12-7-8-13(16)10-14(9-12)18-15(17)11-5-3-2-4-6-11/h2-6,12-14H,7-10H2,1H3/t12-,13+,14-']",['XQJMXPAEFMWDOZ-BTTYYORXSA-N']
tropine_cation->neut,10.33,tropine,profiles of drug substances excipiends and related (A),['[H]O[C@]1([H])C([H])([H])[C@@]2([H])N(C([H])([H])[H])[C@]([H])(C([H])([H])C2([H])[H])C1([H])[H]'],['[#8](-[#6@]1(-[#6@](-[#6@@]2(-[#7](-[#6@@](-[#6@](-[#6@@]-2(-[H])-[H])(-[H])-[H])(-[#6@@]-1(-[H])-[H])-[H])-[#6@](-[H])(-[H])-[H])-[H])(-[H])-[H])-[H])-[H]'],"['InChI=1S/C8H15NO/c1-9-6-2-3-7(9)5-8(10)4-6/h6-8,10H,2-5H2,1H3/t6-,7+,8+']",['CYHOMWAPJJPNMW-JIGDXULJSA-N']
tropolone_cation->neut,-0.5,tropolone,wikipedia,['[H]Oc1c([H])c([H])c([H])c([H])c([H])c1=O'],['[#6]1(:[#6](:[#6](:[#6](:[#6](:[#6](:[#6]:1-[H])-[#8]-[H])=[#8])-[H])-[H])-[H])-[H]'],"['InChI=1S/C7H6O2/c8-6-4-2-1-3-5-7(6)9/h1-5H,(H,8,9)']",['MDYOLVRUBBJPFM-UHFFFAOYSA-N']
tropolone_neut->an,6.9,tropolone,"J. Org. Chem.2013, 78, 11, 54705475",['[H]Oc1c([H])c([H])c([H])c([H])c([H])c1=O'],['[#6]1(:[#6](:[#6](:[#6](:[#6](:[#6](:[#6]:1-[H])-[#8]-[H])=[#8])-[H])-[H])-[H])-[H]'],"['InChI=1S/C7H6O2/c8-6-4-2-1-3-5-7(6)9/h1-5H,(H,8,9)']",['MDYOLVRUBBJPFM-UHFFFAOYSA-N']
tryphtophan_cation->neut,2.38,tryptophan,Lange's handbook of chemistry,['[H]c1c([H])c([H])c2c(c1[H])c(C([H])([H])[C@@]([H])(C(=O)[O-])[N+]([H])([H])[H])c([H])n2[H]'],['[H]-[#7@@](-[H])(-[H])-[#6@@](-[H])(-[#6@@](-[H])(-[H])-[#6]1:[#6](-[H]):[#7](:[#6]2:[#6]:1:[#6](:[#6](:[#6](:[#6]:2-[H])-[H])-[H])-[H])-[H])-[#6](=[#8])-[#8-]'],"['InChI=1S/C11H12N2O2/c12-9(11(14)15)5-7-6-13-10-4-2-1-3-8(7)10/h1-4,6,9,13H,5,12H2,(H,14,15)/t9-/m0/s1']",['QIVBCDIJIAJPQS-VIFPVBQESA-N']
tryphtophan_neut->an,9.39,tryptophan,Lange's handbook of chemistry,['[H]c1c([H])c([H])c2c(c1[H])c(C([H])([H])[C@@]([H])(C(=O)[O-])[N+]([H])([H])[H])c([H])n2[H]'],['[H]-[#7@@](-[H])(-[H])-[#6@@](-[H])(-[#6@@](-[H])(-[H])-[#6]1:[#6](-[H]):[#7](:[#6]2:[#6]:1:[#6](:[#6](:[#6](:[#6]:2-[H])-[H])-[H])-[H])-[H])-[#6](=[#8])-[#8-]'],"['InChI=1S/C11H12N2O2/c12-9(11(14)15)5-7-6-13-10-4-2-1-3-8(7)10/h1-4,6,9,13H,5,12H2,(H,14,15)/t9-/m0/s1']",['QIVBCDIJIAJPQS-VIFPVBQESA-N']
tyramine_cation->neut,9.74,tyramine,http://www.zirchrom.com/organic.htm,['[H]Oc1c([H])c([H])c(C([H])([H])C([H])([H])N([H])[H])c([H])c1[H]'],['[#6]1(:[#6](:[#6](:[#6](:[#6](:[#6]:1-[H])-[#6@@](-[H])(-[H])-[#6@](-[H])(-[H])-[#7](-[H])-[H])-[H])-[H])-[#8]-[H])-[H]'],"['InChI=1S/C8H11NO/c9-6-5-7-1-3-8(10)4-2-7/h1-4,10H,5-6,9H2']",['DZGWFCGJZKJUFP-UHFFFAOYSA-N']
tyramine_neut->an,10.52,tyramine,http://www.zirchrom.com/organic.htm,['[H]Oc1c([H])c([H])c(C([H])([H])C([H])([H])N([H])[H])c([H])c1[H]'],['[#6]1(:[#6](:[#6](:[#6](:[#6](:[#6]:1-[H])-[#6@@](-[H])(-[H])-[#6@](-[H])(-[H])-[#7](-[H])-[H])-[H])-[H])-[#8]-[H])-[H]'],"['InChI=1S/C8H11NO/c9-6-5-7-1-3-8(10)4-2-7/h1-4,10H,5-6,9H2']",['DZGWFCGJZKJUFP-UHFFFAOYSA-N']
tyrosineamide_cation->neut,7.48,tyrosine amide,Lange's handbook of chemistry,['[H]Oc1c([H])c([H])c(C([H])([H])[C@@]([H])(C(=O)N([H])[H])N([H])[H])c([H])c1[H]'],['[#8]=[#6](-[#7](-[H])-[H])-[#6@@](-[#7](-[H])-[H])(-[#6@@](-[#6]1:[#6](:[#6](:[#6](-[#8]-[H]):[#6](:[#6]:1-[H])-[H])-[H])-[H])(-[H])-[H])-[H]'],"['InChI=1S/C9H12N2O2/c10-8(9(11)13)5-6-1-3-7(12)4-2-6/h1-4,8,12H,5,10H2,(H2,11,13)/t8-/m0/s1']",['PQFMNVGMJJMLAE-QMMMGPOBSA-N']
tyrosineamide_neut->an,9.89,tyrosine amide,Lange's handbook of chemistry,['[H]Oc1c([H])c([H])c(C([H])([H])[C@@]([H])(C(=O)N([H])[H])N([H])[H])c([H])c1[H]'],['[#8]=[#6](-[#7](-[H])-[H])-[#6@@](-[#7](-[H])-[H])(-[#6@@](-[#6]1:[#6](:[#6](:[#6](-[#8]-[H]):[#6](:[#6]:1-[H])-[H])-[H])-[H])(-[H])-[H])-[H]'],"['InChI=1S/C9H12N2O2/c10-8(9(11)13)5-6-1-3-7(12)4-2-6/h1-4,8,12H,5,10H2,(H2,11,13)/t8-/m0/s1']",['PQFMNVGMJJMLAE-QMMMGPOBSA-N']
tyrosine_cation->neut,2.18,tyrosine,Lange's handbook of chemistry,['[H]Oc1c([H])c([H])c(C([H])([H])[C@@]([H])(C(=O)[O-])[N+]([H])([H])[H])c([H])c1[H]'],['[H]-[#7@@](-[H])(-[H])-[#6@@](-[H])(-[#6@@](-[#6]1:[#6](:[#6](:[#6](:[#6](:[#6]:1-[H])-[H])-[#8]-[H])-[H])-[H])(-[H])-[H])-[#6](=[#8])-[#8-]'],"['InChI=1S/C9H11NO3/c10-8(9(12)13)5-6-1-3-7(11)4-2-6/h1-4,8,11H,5,10H2,(H,12,13)/t8-/m0/s1']",['OUYCCCASQSFEME-QMMMGPOBSA-N']
tyrosine_neut->an,9.11,tyrosine,Lange's handbook of chemistry,['[H]Oc1c([H])c([H])c(C([H])([H])[C@@]([H])(C(=O)[O-])[N+]([H])([H])[H])c([H])c1[H]'],['[H]-[#7@@](-[H])(-[H])-[#6@@](-[H])(-[#6@@](-[#6]1:[#6](:[#6](:[#6](:[#6](:[#6]:1-[H])-[H])-[#8]-[H])-[H])-[H])(-[H])-[H])-[#6](=[#8])-[#8-]'],"['InChI=1S/C9H11NO3/c10-8(9(12)13)5-6-1-3-7(11)4-2-6/h1-4,8,11H,5,10H2,(H,12,13)/t8-/m0/s1']",['OUYCCCASQSFEME-QMMMGPOBSA-N']
tyrosine_an->2an,10.6,tyrosine,Lange's handbook of chemistry,['[H]Oc1c([H])c([H])c(C([H])([H])[C@@]([H])(C(=O)[O-])[N+]([H])([H])[H])c([H])c1[H]'],['[H]-[#7@@](-[H])(-[H])-[#6@@](-[H])(-[#6@@](-[#6]1:[#6](:[#6](:[#6](:[#6](:[#6]:1-[H])-[H])-[#8]-[H])-[H])-[H])(-[H])-[H])-[#6](=[#8])-[#8-]'],"['InChI=1S/C9H11NO3/c10-8(9(12)13)5-6-1-3-7(11)4-2-6/h1-4,8,11H,5,10H2,(H,12,13)/t8-/m0/s1']",['OUYCCCASQSFEME-QMMMGPOBSA-N']
uracil_neut->an,9.4,uracil,10.1021/jo00019a034,['[H]c1c([H])n([H])c(=O)n([H])c1=O'],['[#6]1(:[#6](:[#6](:[#7](:[#6](=[#8]):[#7]:1-[H])-[H])-[H])-[H])=[#8]'],"['InChI=1S/C4H4N2O2/c7-3-1-2-5-4(8)6-3/h1-2H,(H2,5,6,7,8)']",['ISAKRJDGNUQOIC-UHFFFAOYSA-N']
urazole_neut->an,5.8,urazole,10.1021/jo00019a034,"['[H]Oc1nn([H])c(=O)n1[H]', '[H]Oc1nc(=O)n([H])n1[H]', '[H]Oc1nc(O[H])n([H])n1', '[H]n1c(=O)n([H])n([H])c1=O', '[H]Oc1nnc(O[H])n1[H]']","['[#6]1(:[#7](:[#6](:[#7]:[#7]:1-[H])-[#8]-[H])-[H])=[#8]', '[#6]1(:[#7]:[#6](:[#7](-[H]):[#7]:1-[H])-[#8]-[H])=[#8]', '[#6]1(:[#7]:[#6](:[#7]:[#7]:1-[H])-[#8]-[H])-[#8]-[H]', '[#6]1(:[#7](:[#6](:[#7](-[H]):[#7]:1-[H])=[#8])-[H])=[#8]', '[#6]1(:[#7](:[#6](:[#7]:[#7]:1)-[#8]-[H])-[H])-[#8]-[H]']","['InChI=1S/C2H3N3O2/c6-1-3-2(7)5-4-1/h(H3,3,4,5,6,7)']",['UDATXMIGEVPXTR-UHFFFAOYSA-N']
uric_neut->an,5.4,uric,10.3389/fmed.2018.00160 ,"['[H]n1c(=O)c2c(n([H])c1=O)n([H])c(=O)n2[H]', '[H]Oc1nc(O[H])c2c(n1)n([H])c(=O)n2[H]', '[H]Oc1nc(O[H])c2c(n1)nc(O[H])n2[H]', '[H]Oc1nc2c(c(=O)n([H])c(=O)n2[H])n1[H]']","['[#7]1(:[#6](:[#7](:[#6]2:[#6](=[#8]):[#7](-[H]):[#6](:[#7](:[#6]:1:2)-[H])=[#8])-[H])=[#8])-[H]', '[#7]1(:[#6](:[#7](:[#6]2:[#6](-[#8]-[H]):[#7]:[#6](:[#7]:[#6]:1:2)-[#8]-[H])-[H])=[#8])-[H]', '[#7]1:[#6](:[#7](:[#6]2:[#6](-[#8]-[H]):[#7]:[#6](:[#7]:[#6]:1:2)-[#8]-[H])-[H])-[#8]-[H]', '[#7]1:[#6](:[#7](:[#6]2:[#6](=[#8]):[#7](:[#6](:[#7](:[#6]:1:2)-[H])=[#8])-[H])-[H])-[#8]-[H]']","['InChI=1S/C5H4N4O3/c10-3-1-2(7-4(11)6-1)8-5(12)9-3/h(H4,6,7,8,9,10,11,12)']",['LEHOTFFKMJEONL-UHFFFAOYSA-N']
uric_an->2an,9.8,uric,10.3389/fmed.2018.00160 ,"['[H]n1c(=O)c2c(n([H])c1=O)n([H])c(=O)n2[H]', '[H]Oc1nc(O[H])c2c(n1)n([H])c(=O)n2[H]', '[H]Oc1nc(O[H])c2c(n1)nc(O[H])n2[H]', '[H]Oc1nc2c(c(=O)n([H])c(=O)n2[H])n1[H]']","['[#7]1(:[#6](:[#7](:[#6]2:[#6](=[#8]):[#7](-[H]):[#6](:[#7](:[#6]:1:2)-[H])=[#8])-[H])=[#8])-[H]', '[#7]1(:[#6](:[#7](:[#6]2:[#6](-[#8]-[H]):[#7]:[#6](:[#7]:[#6]:1:2)-[#8]-[H])-[H])=[#8])-[H]', '[#7]1:[#6](:[#7](:[#6]2:[#6](-[#8]-[H]):[#7]:[#6](:[#7]:[#6]:1:2)-[#8]-[H])-[H])-[#8]-[H]', '[#7]1:[#6](:[#7](:[#6]2:[#6](=[#8]):[#7](:[#6](:[#7](:[#6]:1:2)-[H])=[#8])-[H])-[H])-[#8]-[H]']","['InChI=1S/C5H4N4O3/c10-3-1-2(7-4(11)6-1)8-5(12)9-3/h(H4,6,7,8,9,10,11,12)']",['LEHOTFFKMJEONL-UHFFFAOYSA-N']
valineamide_cation->neut,8,valine amide,Lange's handbook of chemistry,['[H]N([H])C(=O)[C@@]([H])(N([H])[H])C([H])(C([H])([H])[H])C([H])([H])[H]'],['[#8]=[#6](-[#7](-[H])-[H])-[#6@@](-[#7](-[H])-[H])(-[#6@@](-[#6@](-[H])(-[H])-[H])(-[#6@](-[H])(-[H])-[H])-[H])-[H]'],"['InChI=1S/C5H12N2O/c1-3(2)4(6)5(7)8/h3-4H,6H2,1-2H3,(H2,7,8)/t4-/m0/s1']",['XDEHMKQLKPZERH-BYPYZUCNSA-N']
valine_cation->neut,2.3,valine,Lange's handbook of chemistry,['[H]C([H])([H])C([H])(C([H])([H])[H])[C@@]([H])(C(=O)[O-])[N+]([H])([H])[H]'],['[H]-[#7@@](-[H])(-[H])-[#6@@](-[H])(-[#6@@](-[#6@](-[H])(-[H])-[H])(-[#6@](-[H])(-[H])-[H])-[H])-[#6](=[#8])-[#8-]'],"['InChI=1S/C5H11NO2/c1-3(2)4(6)5(7)8/h3-4H,6H2,1-2H3,(H,7,8)/t4-/m0/s1']",['KZSNJWFQEVHDMF-BYPYZUCNSA-N']
valine_neut->an,9.79,valine,Lange's handbook of chemistry,['[H]C([H])([H])C([H])(C([H])([H])[H])[C@@]([H])(C(=O)[O-])[N+]([H])([H])[H]'],['[H]-[#7@@](-[H])(-[H])-[#6@@](-[H])(-[#6@@](-[#6@](-[H])(-[H])-[H])(-[#6@](-[H])(-[H])-[H])-[H])-[#6](=[#8])-[#8-]'],"['InChI=1S/C5H11NO2/c1-3(2)4(6)5(7)8/h3-4H,6H2,1-2H3,(H,7,8)/t4-/m0/s1']",['KZSNJWFQEVHDMF-BYPYZUCNSA-N']
valinemethylester_cation->neut,7.49,valine methyl ester,Lange's handbook of chemistry,['[H]N([H])[C@]([H])(C(=O)OC([H])([H])[H])C([H])(C([H])([H])[H])C([H])([H])[H]'],['[#8](-[#6](=[#8])-[#6@@](-[#7](-[H])-[H])(-[#6@@](-[#6@@](-[H])(-[H])-[H])(-[#6@@](-[H])(-[H])-[H])-[H])-[H])-[#6@](-[H])(-[H])-[H]'],"['InChI=1S/C6H13NO2/c1-4(2)5(7)6(8)9-3/h4-5H,7H2,1-3H3/t5-/m0/s1']",['CEMZBWPSKYISTN-YFKPBYRVSA-N']
vanillin_neut->an,7.4,vanillin,profiles of drug substances excipiends and related (R),['[H]Oc1c([H])c([H])c(C([H])=O)c([H])c1OC([H])([H])[H]'],['[#8](-[#6]1:[#6](:[#6](:[#6](:[#6](:[#6]:1-[#8]-[H])-[H])-[H])-[#6](=[#8])-[H])-[H])-[#6@](-[H])(-[H])-[H]'],"['InChI=1S/C8H8O3/c1-11-8-4-6(5-9)2-3-7(8)10/h2-5,10H,1H3']",['MWOOGOJBHIARFG-UHFFFAOYSA-N']
veronal_neut->an,8.02,veronal,Lange's handbook of chemistry,['[H]N1C(=O)N([H])C(=O)C(C([H])([H])C([H])([H])[H])(C([H])([H])C([H])([H])[H])C1=O'],['[#6]1(-[#6@](-[#6](-[#7](-[#6](-[#7]-1-[H])=[#8])-[H])=[#8])(-[#6@](-[H])(-[H])-[#6@](-[H])(-[H])-[H])-[#6@](-[H])(-[H])-[#6@@](-[H])(-[H])-[H])=[#8]'],"['InChI=1S/C8H12N2O3/c1-3-8(4-2)5(11)9-7(13)10-6(8)12/h3-4H2,1-2H3,(H2,9,10,11,12,13)']",['FTOAOBMCPZCFFF-UHFFFAOYSA-N']
vinylalcohol_neut->an,15.52,allyl alcohol,DOI: 10.1021/acs.jpca.7b03907,['[H]OC([H])([H])C([H])=C([H])[H]'],['[#8](-[H])-[#6@@](-[H])(-[H])-[#6](=[#6](-[H])-[H])-[H]'],"['InChI=1S/C3H6O/c1-2-3-4/h2,4H,1,3H2']",['XXROGKLTLUQVRX-UHFFFAOYSA-N']