compn,pKa,correct name,reference,smiles,smarts,inchi,inchiKey
2chlorophenylphosphonic_neut->an,1.63,2-chlorphenyl-phosphonic acid,10.1021/jp9067087,['[H]OP(=O)(O[H])c1c([H])c([H])c([H])c([H])c1Cl'],['[#8](-[#15@](-[#8]-[H])(=[#8])-[#6]1:[#6](:[#6](:[#6](:[#6](:[#6]:1-[#17])-[H])-[H])-[H])-[H])-[H]'],"['InChI=1S/C6H6ClO3P/c7-5-3-1-2-4-6(5)11(8,9)10/h1-4H,(H2,8,9,10)']",['AOJSHUFFESHCRA-UHFFFAOYSA-N']
2chlorophenylphosphonic_an->2an,6.98,2-chlorphenyl-phosphonic acid,10.1021/jp9067087,['[H]OP(=O)(O[H])c1c([H])c([H])c([H])c([H])c1Cl'],['[#8](-[#15@](-[#8]-[H])(=[#8])-[#6]1:[#6](:[#6](:[#6](:[#6](:[#6]:1-[#17])-[H])-[H])-[H])-[H])-[H]'],"['InChI=1S/C6H6ClO3P/c7-5-3-1-2-4-6(5)11(8,9)10/h1-4H,(H2,8,9,10)']",['AOJSHUFFESHCRA-UHFFFAOYSA-N']
3chlorophenylphosphonic_neut->an,1.53,3-chlorphenyl-phosphonic acid,https://cdnsciencepub.com/doi/pdf/10.1139/v87-290,['[H]OP(=O)(O[H])c1c([H])c([H])c([H])c(Cl)c1[H]'],['[#8](-[#15@](-[#8]-[H])(=[#8])-[#6]1:[#6](:[#6](:[#6](:[#6](:[#6]:1-[H])-[#17])-[H])-[H])-[H])-[H]'],"['InChI=1S/C6H6ClO3P/c7-5-2-1-3-6(4-5)11(8,9)10/h1-4H,(H2,8,9,10)']",['KPRMTLXLUPSXMR-UHFFFAOYSA-N']
3chlorophenylphosphonic_an->2an,7.1,3-chlorphenyl-phosphonic acid,https://cdnsciencepub.com/doi/pdf/10.1139/v87-290,['[H]OP(=O)(O[H])c1c([H])c([H])c([H])c(Cl)c1[H]'],['[#8](-[#15@](-[#8]-[H])(=[#8])-[#6]1:[#6](:[#6](:[#6](:[#6](:[#6]:1-[H])-[#17])-[H])-[H])-[H])-[H]'],"['InChI=1S/C6H6ClO3P/c7-5-2-1-3-6(4-5)11(8,9)10/h1-4H,(H2,8,9,10)']",['KPRMTLXLUPSXMR-UHFFFAOYSA-N']
2methoxyphenylphosphonic_neut->an,2.16,2-methoxyphenyl-phosphonic acid,10.1021/jp9067087,['[H]OP(=O)(O[H])c1c([H])c([H])c([H])c([H])c1OC([H])([H])[H]'],['[#8](-[#15@](-[#8]-[H])(=[#8])-[#6]1:[#6](:[#6](:[#6](:[#6](:[#6]:1-[#8]-[#6@@](-[H])(-[H])-[H])-[H])-[H])-[H])-[H])-[H]'],"['InChI=1S/C7H9O4P/c1-11-6-4-2-3-5-7(6)12(8,9)10/h2-5H,1H3,(H2,8,9,10)']",['QDBZWLAQPHAUGV-UHFFFAOYSA-N']
2methoxyphenylphosphonic_an->2an,7.77,2-methoxyphenyl-phosphonic acid,10.1021/jp9067087,['[H]OP(=O)(O[H])c1c([H])c([H])c([H])c([H])c1OC([H])([H])[H]'],['[#8](-[#15@](-[#8]-[H])(=[#8])-[#6]1:[#6](:[#6](:[#6](:[#6](:[#6]:1-[#8]-[#6@@](-[H])(-[H])-[H])-[H])-[H])-[H])-[H])-[H]'],"['InChI=1S/C7H9O4P/c1-11-6-4-2-3-5-7(6)12(8,9)10/h2-5H,1H3,(H2,8,9,10)']",['QDBZWLAQPHAUGV-UHFFFAOYSA-N']
2methylphenylphosphonic_neut->an,2.1,2-methyphenyl-phosphonic acid,10.1021/jp9067087,['[H]OP(=O)(O[H])c1c([H])c([H])c([H])c([H])c1C([H])([H])[H]'],['[#8](-[#15@](-[#8]-[H])(=[#8])-[#6]1:[#6](:[#6](:[#6](:[#6](:[#6]:1-[#6@@](-[H])(-[H])-[H])-[H])-[H])-[H])-[H])-[H]'],"['InChI=1S/C7H9O3P/c1-6-4-2-3-5-7(6)11(8,9)10/h2-5H,1H3,(H2,8,9,10)']",['YXTSJMYYIRPSDF-UHFFFAOYSA-N']
2methylphenylphosphonic_an->2an,7.71,2-methyphenyl-phosphonic acid,10.1021/jp9067087,['[H]OP(=O)(O[H])c1c([H])c([H])c([H])c([H])c1C([H])([H])[H]'],['[#8](-[#15@](-[#8]-[H])(=[#8])-[#6]1:[#6](:[#6](:[#6](:[#6](:[#6]:1-[#6@@](-[H])(-[H])-[H])-[H])-[H])-[H])-[H])-[H]'],"['InChI=1S/C7H9O3P/c1-6-4-2-3-5-7(6)11(8,9)10/h2-5H,1H3,(H2,8,9,10)']",['YXTSJMYYIRPSDF-UHFFFAOYSA-N']
3nitrophenylphosphonic_neut->an,1.2,3-nitrophenyl-phosphonic acid,https://cdnsciencepub.com/doi/pdf/10.1139/v87-290,['[H]OP(=O)(O[H])c1c([H])c([H])c([H])c([N+](=O)[O-])c1[H]'],['[#8](-[#15@](-[#8]-[H])(=[#8])-[#6]1:[#6](:[#6](:[#6](:[#6](:[#6]:1-[H])-[#7+](=[#8])-[#8-])-[H])-[H])-[H])-[H]'],"['InChI=1S/C6H6NO5P/c8-7(9)5-2-1-3-6(4-5)13(10,11)12/h1-4H,(H2,10,11,12)']",['OXWXINKWKITCIH-UHFFFAOYSA-N']
3nitrophenylphosphonic_an->2an,6.69,3-nitrophenyl-phosphonic acid,https://cdnsciencepub.com/doi/pdf/10.1139/v87-290,['[H]OP(=O)(O[H])c1c([H])c([H])c([H])c([N+](=O)[O-])c1[H]'],['[#8](-[#15@](-[#8]-[H])(=[#8])-[#6]1:[#6](:[#6](:[#6](:[#6](:[#6]:1-[H])-[#7+](=[#8])-[#8-])-[H])-[H])-[H])-[H]'],"['InChI=1S/C6H6NO5P/c8-7(9)5-2-1-3-6(4-5)13(10,11)12/h1-4H,(H2,10,11,12)']",['OXWXINKWKITCIH-UHFFFAOYSA-N']
3methylphenylphosphonic_neut->an,1.88,3-methylphenyl-phosphonic acid,10.1021/jp9067087,['[H]OP(=O)(O[H])c1c([H])c([H])c([H])c(C([H])([H])[H])c1[H]'],['[#8](-[#15@](-[#8]-[H])(=[#8])-[#6]1:[#6](:[#6](:[#6](:[#6](:[#6]:1-[H])-[#6@@](-[H])(-[H])-[H])-[H])-[H])-[H])-[H]'],"['InChI=1S/C7H9O3P/c1-6-3-2-4-7(5-6)11(8,9)10/h2-5H,1H3,(H2,8,9,10)']",['PLTITAYELKYVLW-UHFFFAOYSA-N']
3methylphenylphosphonic_an->2an,7.44,3-methylphenyl-phosphonic acid,10.1021/jp9067087,['[H]OP(=O)(O[H])c1c([H])c([H])c([H])c(C([H])([H])[H])c1[H]'],['[#8](-[#15@](-[#8]-[H])(=[#8])-[#6]1:[#6](:[#6](:[#6](:[#6](:[#6]:1-[H])-[#6@@](-[H])(-[H])-[H])-[H])-[H])-[H])-[H]'],"['InChI=1S/C7H9O3P/c1-6-3-2-4-7(5-6)11(8,9)10/h2-5H,1H3,(H2,8,9,10)']",['PLTITAYELKYVLW-UHFFFAOYSA-N']
3hydroxyphenylphosphonic_neut->an,1.78,3-hydroxyphenyl-phosphonic acid,10.1021/jp9067087,['[H]Oc1c([H])c([H])c([H])c(P(=O)(O[H])O[H])c1[H]'],['[#8](-[#15@](-[#8]-[H])(=[#8])-[#6]1:[#6](:[#6](:[#6](:[#6](:[#6]:1-[H])-[#8]-[H])-[H])-[H])-[H])-[H]'],"['InChI=1S/C6H7O4P/c7-5-2-1-3-6(4-5)11(8,9)10/h1-4,7H,(H2,8,9,10)']",['CHVHANKCBNWZMB-UHFFFAOYSA-N']
3hydroxyphenylphosphonic_an->2an,7.03,3-hydroxyphenyl-phosphonic acid,10.1021/jp9067087,['[H]Oc1c([H])c([H])c([H])c(P(=O)(O[H])O[H])c1[H]'],['[#8](-[#15@](-[#8]-[H])(=[#8])-[#6]1:[#6](:[#6](:[#6](:[#6](:[#6]:1-[H])-[#8]-[H])-[H])-[H])-[H])-[H]'],"['InChI=1S/C6H7O4P/c7-5-2-1-3-6(4-5)11(8,9)10/h1-4,7H,(H2,8,9,10)']",['CHVHANKCBNWZMB-UHFFFAOYSA-N']
26dimethylphenylphosphonic_neut->an,2.39,"2,6-dimethylphenyl-phosphonic acid",10.1021/jp9067087,['[H]OP(=O)(O[H])c1c(C([H])([H])[H])c([H])c([H])c([H])c1C([H])([H])[H]'],['[#8](-[#15@](-[#8]-[H])(=[#8])-[#6]1:[#6](:[#6](:[#6](:[#6](:[#6]:1-[#6@@](-[H])(-[H])-[H])-[H])-[H])-[H])-[#6@@](-[H])(-[H])-[H])-[H]'],"['InChI=1S/C8H11O3P/c1-6-4-3-5-7(2)8(6)12(9,10)11/h3-5H,1-2H3,(H2,9,10,11)']",['BFKIIIIRGBJFCB-UHFFFAOYSA-N']
26dimethylphenylphosphonic_an->2an,7.7,"2,6-dimethylphenyl-phosphonic acid",10.1021/jp9067087,['[H]OP(=O)(O[H])c1c(C([H])([H])[H])c([H])c([H])c([H])c1C([H])([H])[H]'],['[#8](-[#15@](-[#8]-[H])(=[#8])-[#6]1:[#6](:[#6](:[#6](:[#6](:[#6]:1-[#6@@](-[H])(-[H])-[H])-[H])-[H])-[H])-[#6@@](-[H])(-[H])-[H])-[H]'],"['InChI=1S/C8H11O3P/c1-6-4-3-5-7(2)8(6)12(9,10)11/h3-5H,1-2H3,(H2,9,10,11)']",['BFKIIIIRGBJFCB-UHFFFAOYSA-N']
147triazacyclononane_cation->neut,10.4,"1,4,7-triazaciclononane",10.1039/P29910000137,['[H]N1C([H])([H])C([H])([H])N([H])C([H])([H])C([H])([H])N([H])C([H])([H])C1([H])[H]'],['[#7]1(-[#6@](-[#6@](-[#7](-[#6@](-[#6@](-[#7](-[#6@](-[#6@]-1(-[H])-[H])(-[H])-[H])-[H])(-[H])-[H])(-[H])-[H])-[H])(-[H])-[H])(-[H])-[H])-[H]'],"['InChI=1S/C6H15N3/c1-2-8-5-6-9-4-3-7-1/h7-9H,1-6H2']",['ITWBWJFEJCHKSN-UHFFFAOYSA-N']
147triazacyclononane_2cation->cation,6.9,"1,4,7-triazaciclononane",10.1039/P29910000137,['[H]N1C([H])([H])C([H])([H])N([H])C([H])([H])C([H])([H])N([H])C([H])([H])C1([H])[H]'],['[#7]1(-[#6@](-[#6@](-[#7](-[#6@](-[#6@](-[#7](-[#6@](-[#6@]-1(-[H])-[H])(-[H])-[H])-[H])(-[H])-[H])(-[H])-[H])-[H])(-[H])-[H])(-[H])-[H])-[H]'],"['InChI=1S/C6H15N3/c1-2-8-5-6-9-4-3-7-1/h7-9H,1-6H2']",['ITWBWJFEJCHKSN-UHFFFAOYSA-N']
147triazacyclononane_3cation->2cation,0.7,"1,4,7-triazaciclononane",10.1039/P29910000137,['[H]N1C([H])([H])C([H])([H])N([H])C([H])([H])C([H])([H])N([H])C([H])([H])C1([H])[H]'],['[#7]1(-[#6@](-[#6@](-[#7](-[#6@](-[#6@](-[#7](-[#6@](-[#6@]-1(-[H])-[H])(-[H])-[H])-[H])(-[H])-[H])(-[H])-[H])-[H])(-[H])-[H])(-[H])-[H])-[H]'],"['InChI=1S/C6H15N3/c1-2-8-5-6-9-4-3-7-1/h7-9H,1-6H2']",['ITWBWJFEJCHKSN-UHFFFAOYSA-N']
NNNtrimethyl147triazacyclononane_cation->neut,11.7,"N,N',N''-trimethyl-1,4,7-triazaciclononane",10.1039/P29910000137,['[H]C([H])([H])N1C([H])([H])C([H])([H])N(C([H])([H])[H])C([H])([H])C([H])([H])N(C([H])([H])[H])C([H])([H])C1([H])[H]'],['[#7]1(-[#6@](-[#6@](-[#7](-[#6@](-[#6@](-[#7](-[#6@](-[#6@]-1(-[H])-[H])(-[H])-[H])-[#6@@](-[H])(-[H])-[H])(-[H])-[H])(-[H])-[H])-[#6@@](-[H])(-[H])-[H])(-[H])-[H])(-[H])-[H])-[#6@@](-[H])(-[H])-[H]'],"['InChI=1S/C9H21N3/c1-10-4-6-11(2)8-9-12(3)7-5-10/h4-9H2,1-3H3']",['WLDGDTPNAKWAIR-UHFFFAOYSA-N']
NNNtrimethyl147triazacyclononane_2cation->cation,5.2,"N,N',N''-trimethyl-1,4,7-triazaciclononane",10.1039/P29910000137,['[H]C([H])([H])N1C([H])([H])C([H])([H])N(C([H])([H])[H])C([H])([H])C([H])([H])N(C([H])([H])[H])C([H])([H])C1([H])[H]'],['[#7]1(-[#6@](-[#6@](-[#7](-[#6@](-[#6@](-[#7](-[#6@](-[#6@]-1(-[H])-[H])(-[H])-[H])-[#6@@](-[H])(-[H])-[H])(-[H])-[H])(-[H])-[H])-[#6@@](-[H])(-[H])-[H])(-[H])-[H])(-[H])-[H])-[#6@@](-[H])(-[H])-[H]'],"['InChI=1S/C9H21N3/c1-10-4-6-11(2)8-9-12(3)7-5-10/h4-9H2,1-3H3']",['WLDGDTPNAKWAIR-UHFFFAOYSA-N']
NNNtrimethyl147triazacyclononane_3cation->2cation,0.6,"N,N',N''-trimethyl-1,4,7-triazaciclononane",10.1039/P29910000137,['[H]C([H])([H])N1C([H])([H])C([H])([H])N(C([H])([H])[H])C([H])([H])C([H])([H])N(C([H])([H])[H])C([H])([H])C1([H])[H]'],['[#7]1(-[#6@](-[#6@](-[#7](-[#6@](-[#6@](-[#7](-[#6@](-[#6@]-1(-[H])-[H])(-[H])-[H])-[#6@@](-[H])(-[H])-[H])(-[H])-[H])(-[H])-[H])-[#6@@](-[H])(-[H])-[H])(-[H])-[H])(-[H])-[H])-[#6@@](-[H])(-[H])-[H]'],"['InChI=1S/C9H21N3/c1-10-4-6-11(2)8-9-12(3)7-5-10/h4-9H2,1-3H3']",['WLDGDTPNAKWAIR-UHFFFAOYSA-N']
NNNtrimethyl159triazaciclododecane_cation->neut,12.8,"N,N',N''-trimethyl-1,5,9-triazaciclododecane",10.1021/ja030236d,['[H]C([H])([H])N1C([H])([H])C([H])([H])C([H])([H])N(C([H])([H])[H])C([H])([H])C([H])([H])C([H])([H])N(C([H])([H])[H])C([H])([H])C([H])([H])C1([H])[H]'],['[#7]1(-[#6@](-[#6@](-[#6@@](-[#7](-[#6@](-[#6@@](-[#6@@](-[#7](-[#6@](-[#6@@](-[#6@@]-1(-[H])-[H])(-[H])-[H])(-[H])-[H])-[#6@@](-[H])(-[H])-[H])(-[H])-[H])(-[H])-[H])(-[H])-[H])-[#6@@](-[H])(-[H])-[H])(-[H])-[H])(-[H])-[H])(-[H])-[H])-[#6@@](-[H])(-[H])-[H]'],"['InChI=1S/C12H27N3/c1-13-7-4-9-14(2)11-6-12-15(3)10-5-8-13/h4-12H2,1-3H3']",['LRPVVAOGGZFVFO-UHFFFAOYSA-N']
NNNtrimethyl159triazaciclododecane_2cation->cation,5.7,"N,N',N''-trimethyl-1,5,9-triazaciclododecane",10.1021/ja030236d,['[H]C([H])([H])N1C([H])([H])C([H])([H])C([H])([H])N(C([H])([H])[H])C([H])([H])C([H])([H])C([H])([H])N(C([H])([H])[H])C([H])([H])C([H])([H])C1([H])[H]'],['[#7]1(-[#6@](-[#6@](-[#6@@](-[#7](-[#6@](-[#6@@](-[#6@@](-[#7](-[#6@](-[#6@@](-[#6@@]-1(-[H])-[H])(-[H])-[H])(-[H])-[H])-[#6@@](-[H])(-[H])-[H])(-[H])-[H])(-[H])-[H])(-[H])-[H])-[#6@@](-[H])(-[H])-[H])(-[H])-[H])(-[H])-[H])(-[H])-[H])-[#6@@](-[H])(-[H])-[H]'],"['InChI=1S/C12H27N3/c1-13-7-4-9-14(2)11-6-12-15(3)10-5-8-13/h4-12H2,1-3H3']",['LRPVVAOGGZFVFO-UHFFFAOYSA-N']
NNNtrimethyl159triazaciclododecane_3cation->2cation,2.9,"N,N',N''-trimethyl-1,5,9-triazaciclododecane",10.1021/ja030236d,['[H]C([H])([H])N1C([H])([H])C([H])([H])C([H])([H])N(C([H])([H])[H])C([H])([H])C([H])([H])C([H])([H])N(C([H])([H])[H])C([H])([H])C([H])([H])C1([H])[H]'],['[#7]1(-[#6@](-[#6@](-[#6@@](-[#7](-[#6@](-[#6@@](-[#6@@](-[#7](-[#6@](-[#6@@](-[#6@@]-1(-[H])-[H])(-[H])-[H])(-[H])-[H])-[#6@@](-[H])(-[H])-[H])(-[H])-[H])(-[H])-[H])(-[H])-[H])-[#6@@](-[H])(-[H])-[H])(-[H])-[H])(-[H])-[H])(-[H])-[H])-[#6@@](-[H])(-[H])-[H]'],"['InChI=1S/C12H27N3/c1-13-7-4-9-14(2)11-6-12-15(3)10-5-8-13/h4-12H2,1-3H3']",['LRPVVAOGGZFVFO-UHFFFAOYSA-N']
3hydroxy6dimethylaminopyridazine_cation->neut,1.36,3-hydroxy-6-dimethylamino-pyridazine,# doi.org/10.1039/P29720000392,"['[H]Oc1nnc(N(C([H])([H])[H])C([H])([H])[H])c([H])c1[H]', '[H]c1c([O-])nn([H])c(=[N+](C([H])([H])[H])C([H])([H])[H])c1[H]', '[H]c1c(N(C([H])([H])[H])C([H])([H])[H])nn([H])c(=O)c1[H]']","['[#7]1:[#7]:[#6](:[#6](:[#6](:[#6]:1-[#8]-[H])-[H])-[H])-[#7](-[#6@@](-[H])(-[H])-[H])-[#6@@](-[H])(-[H])-[H]', '[#7]1:[#7](:[#6](:[#6](:[#6](:[#6]:1-[#8-])-[H])-[H])=[#7+](-[#6@@](-[H])(-[H])-[H])-[#6@@](-[H])(-[H])-[H])-[H]', '[#7]1(:[#7]:[#6](:[#6](:[#6](:[#6]:1=[#8])-[H])-[H])-[#7](-[#6@@](-[H])(-[H])-[H])-[#6@@](-[H])(-[H])-[H])-[H]']","['InChI=1S/C6H9N3O/c1-9(2)5-3-4-6(10)8-7-5/h3-4H,1-2H3,(H,8,10)']",['NORFHVKBYQMRNZ-UHFFFAOYSA-N']
1azahomocubane_cation->neut,9.7,1-azahomocubane,10.1039/d3sc00001j,['[H]C1([H])N2[C@@]3([H])[C@@]4([H])[C@]2([H])[C@@]2([H])[C@]1([H])[C@]3([H])[C@@]42[H]'],['[H]-[#6@]12-[#6@@]3(-[#6@@]4(-[#6@](-[H])(-[H])-[#7]-1-[#6@]1(-[#6@]-4(-[H])-[#6@@]-3(-[#6@@]-2-1-[H])-[H])-[H])-[H])-[H]'],"['InChI=1S/C8H9N/c1-2-3-5-4(2)8-6(5)7(3)9(1)8/h2-8H,1H2/t2-,3+,4-,5+,6-,7+,8-']",['ARTHEYLKRFTUKW-IDGRAXEHSA-N']
1azabicylco222octane_cation->neut,11.1,1-aza-bicyclo-222-octane,10.1039/d3sc00001j,['[H]C1([H])N2C([H])([H])C([H])([H])C([H])(C1([H])[H])C([H])([H])C2([H])[H]'],['[H]-[#6@@]1(-[#6@@](-[#6@@]2(-[#6@](-[#6@](-[H])(-[H])-[#7]-1-[#6@](-[#6@]-2(-[H])-[H])(-[H])-[H])(-[H])-[H])-[H])(-[H])-[H])-[H]'],"['InChI=1S/C7H13N/c1-4-8-5-2-7(1)3-6-8/h7H,1-6H2']",['SBYHFKPVCBCYGV-UHFFFAOYSA-N']
1azabicylco221heptane_cation->neut,11.5,1-aza-bicyclo-221-heptane,10.1039/d3sc00001j,['[H]C1([H])N2C([H])([H])C([H])([H])C([H])(C2([H])[H])C1([H])[H]'],['[H]-[#6@@]1(-[#6@@](-[#6@@]2(-[#6@](-[H])(-[H])-[#7]-1-[#6@](-[#6@]-2(-[H])-[H])(-[H])-[H])-[H])(-[H])-[H])-[H]'],"['InChI=1S/C6H11N/c1-3-7-4-2-6(1)5-7/h6H,1-5H2']",['JVCBVWTTXCNJBJ-UHFFFAOYSA-N']
3carboxylictropolone_an->2an,7.98,3-carboxy-tropolone,doi.org/10.1246/bcsj.32.92,"['[H]OC(=O)c1c([H])c([H])c([H])c([H])c(O[H])c1=O', '[H]OC(=O)c1c([H])c([H])c([H])c([H])c(=O)c1O[H]']","['[#8]=[#6]1:[#6](:[#6](:[#6](:[#6](:[#6](:[#6]:1-[#8]-[H])-[H])-[H])-[H])-[H])-[#6](-[#8]-[H])=[#8]', '[#8](-[#6]1:[#6](:[#6](:[#6](:[#6](:[#6](:[#6]:1=[#8])-[H])-[H])-[H])-[H])-[#6](-[#8]-[H])=[#8])-[H]']","['InChI=1S/C8H6O4/c9-6-4-2-1-3-5(7(6)10)8(11)12/h1-4H,(H,9,10)(H,11,12)']",['XSQOERZXJVUACX-UHFFFAOYSA-N']
3carboxylictropolone_neut->an,3.2,3-carboxy-tropolone,doi.org/10.1246/bcsj.32.92,"['[H]OC(=O)c1c([H])c([H])c([H])c([H])c(O[H])c1=O', '[H]OC(=O)c1c([H])c([H])c([H])c([H])c(=O)c1O[H]']","['[#8]=[#6]1:[#6](:[#6](:[#6](:[#6](:[#6](:[#6]:1-[#8]-[H])-[H])-[H])-[H])-[H])-[#6](-[#8]-[H])=[#8]', '[#8](-[#6]1:[#6](:[#6](:[#6](:[#6](:[#6](:[#6]:1=[#8])-[H])-[H])-[H])-[H])-[#6](-[#8]-[H])=[#8])-[H]']","['InChI=1S/C8H6O4/c9-6-4-2-1-3-5(7(6)10)8(11)12/h1-4H,(H,9,10)(H,11,12)']",['XSQOERZXJVUACX-UHFFFAOYSA-N']
4carboxylictropolone_an->2an,7.03,4-carboxy-tropolone,doi.org/10.1246/bcsj.32.92,"['[H]OC(=O)c1c([H])c([H])c([H])c(=O)c(O[H])c1[H]', '[H]OC(=O)c1c([H])c([H])c([H])c(O[H])c(=O)c1[H]']","['[#8]=[#6]1:[#6](-[#8]-[H]):[#6](:[#6](:[#6](:[#6](:[#6]:1-[H])-[H])-[H])-[#6](-[#8]-[H])=[#8])-[H]', '[#8](-[#6]1:[#6](=[#8]):[#6](:[#6](:[#6](:[#6](:[#6]:1-[H])-[H])-[H])-[#6](-[#8]-[H])=[#8])-[H])-[H]']","['InChI=1S/C8H6O4/c9-6-3-1-2-5(8(11)12)4-7(6)10/h1-4H,(H,9,10)(H,11,12)']",['ZAVOSVSKRQDBON-UHFFFAOYSA-N']
4carboxylictropolone_neut->an,3.42,4-carboxy-tropolone,doi.org/10.1246/bcsj.32.92,"['[H]OC(=O)c1c([H])c([H])c([H])c(=O)c(O[H])c1[H]', '[H]OC(=O)c1c([H])c([H])c([H])c(O[H])c(=O)c1[H]']","['[#8]=[#6]1:[#6](-[#8]-[H]):[#6](:[#6](:[#6](:[#6](:[#6]:1-[H])-[H])-[H])-[#6](-[#8]-[H])=[#8])-[H]', '[#8](-[#6]1:[#6](=[#8]):[#6](:[#6](:[#6](:[#6](:[#6]:1-[H])-[H])-[H])-[#6](-[#8]-[H])=[#8])-[H])-[H]']","['InChI=1S/C8H6O4/c9-6-3-1-2-5(8(11)12)4-7(6)10/h1-4H,(H,9,10)(H,11,12)']",['ZAVOSVSKRQDBON-UHFFFAOYSA-N']
5carboxylictropolone_neut->an,4.05,5-carboxy-tropolone,doi.org/10.1246/bcsj.32.92,['[H]OC(=O)c1c([H])c([H])c(O[H])c(=O)c([H])c1[H]'],['[#8](-[#6]1:[#6](:[#6](:[#6](:[#6](:[#6](:[#6]:1=[#8])-[H])-[H])-[#6](-[#8]-[H])=[#8])-[H])-[H])-[H]'],"['InChI=1S/C8H6O4/c9-6-3-1-5(8(11)12)2-4-7(6)10/h1-4H,(H,9,10)(H,11,12)']",['SIGZPDBFIPIXRJ-UHFFFAOYSA-N']
5carboxylictropolone_an->2an,6.41,5-carboxy-tropolone,doi.org/10.1246/bcsj.32.92,['[H]OC(=O)c1c([H])c([H])c(O[H])c(=O)c([H])c1[H]'],['[#8](-[#6]1:[#6](:[#6](:[#6](:[#6](:[#6](:[#6]:1=[#8])-[H])-[H])-[#6](-[#8]-[H])=[#8])-[H])-[H])-[H]'],"['InChI=1S/C8H6O4/c9-6-3-1-5(8(11)12)2-4-7(6)10/h1-4H,(H,9,10)(H,11,12)']",['SIGZPDBFIPIXRJ-UHFFFAOYSA-N']
5nitrotropolone_neut->an,3.3,5-nitrotropolone,https://doi.org/10.1016/S0009-2614(00)01272-0,['[H]Oc1c([H])c([H])c([N+](=O)[O-])c([H])c([H])c1=O'],['[#8](-[#6]1:[#6](:[#6](:[#6](:[#6](:[#6](:[#6]:1=[#8])-[H])-[H])-[#7+](=[#8])-[#8-])-[H])-[H])-[H]'],"['InChI=1S/C7H5NO4/c9-6-3-1-5(8(11)12)2-4-7(6)10/h1-4H,(H,9,10)']",['FDKIMQPNTGQYPT-UHFFFAOYSA-N']
bicyclo211hexane1carboxylic_neut->an,4.46,"bicyclo[2,1,1]hexane-1-carboxylic acid",doi.org/10.1021/jo00827a018,['[H]OC(=O)[C@]12C([H])([H])C([H])([H])[C@]([H])(C1([H])[H])C2([H])[H]'],['[#8](-[#6](=[#8])-[#6@]12-[#6@](-[#6@](-[#6@@]-1(-[H])-[H])(-[#6@](-[#6@@]-2(-[H])-[H])(-[H])-[H])-[H])(-[H])-[H])-[H]'],"['InChI=1S/C7H10O2/c8-6(9)7-2-1-5(3-7)4-7/h5H,1-4H2,(H,8,9)/t5-,7-']",['UOABUWSTCXPWNK-KBTIHESUSA-N']
1aminocyclopentane1carboxylate_cation->neut,2.62,1-amino-cyclopentane-1-carboxylate,doi.org/10.1039/P29910001797,['[H]C1([H])C([H])([H])C([H])([H])C(C(=O)[O-])([N+]([H])([H])[H])C1([H])[H]'],['[#8]=[#6](-[#8-])-[#6@]1(-[#7@+](-[H])(-[H])-[H])-[#6@](-[#6@](-[#6@@](-[#6@@]-1(-[H])-[H])(-[H])-[H])(-[H])-[H])(-[H])-[H]'],"['InChI=1S/C6H11NO2/c7-6(5(8)9)3-1-2-4-6/h1-4,7H2,(H,8,9)']",['NILQLFBWTXNUOE-UHFFFAOYSA-N']
1aminocyclopentane1carboxylate_neut->an,10.01,1-amino-cyclopentane-1-carboxylate,doi.org/10.1039/P29910001797,['[H]C1([H])C([H])([H])C([H])([H])C(C(=O)[O-])([N+]([H])([H])[H])C1([H])[H]'],['[#8]=[#6](-[#8-])-[#6@]1(-[#7@+](-[H])(-[H])-[H])-[#6@](-[#6@](-[#6@@](-[#6@@]-1(-[H])-[H])(-[H])-[H])(-[H])-[H])(-[H])-[H]'],"['InChI=1S/C6H11NO2/c7-6(5(8)9)3-1-2-4-6/h1-4,7H2,(H,8,9)']",['NILQLFBWTXNUOE-UHFFFAOYSA-N']
3azetidinecarboxylic_cation->neut,3.2,azetidine-3-carboxylic,doi.org/10.1021/jo00797a046,['[H]C1(C(=O)[O-])C([H])([H])[N+]([H])([H])C1([H])[H]'],"['[#8]=[#6](-[#8-])-[#6@@]1(-[#6@@](-[#7@@+](-[#6@]-1(-[H])-[H])(-[H])-[H])(-[H])-[H])-[H]', '[#8]=[#6](-[#8-])-[#6@]1(-[#6@@](-[#7@@+](-[#6@]-1(-[H])-[H])(-[H])-[H])(-[H])-[H])-[H]']","['InChI=1S/C4H7NO2/c6-4(7)3-1-5-2-3/h3,5H,1-2H2,(H,6,7)']",['GFZWHAAOIVMHOI-UHFFFAOYSA-N']
3azetidinecarboxylic_neut->an,10.3,azetidine-3-carboxylic,doi.org/10.1021/jo00797a046,['[H]C1(C(=O)[O-])C([H])([H])[N+]([H])([H])C1([H])[H]'],"['[#8]=[#6](-[#8-])-[#6@@]1(-[#6@@](-[#7@@+](-[#6@]-1(-[H])-[H])(-[H])-[H])(-[H])-[H])-[H]', '[#8]=[#6](-[#8-])-[#6@]1(-[#6@@](-[#7@@+](-[#6@]-1(-[H])-[H])(-[H])-[H])(-[H])-[H])-[H]']","['InChI=1S/C4H7NO2/c6-4(7)3-1-5-2-3/h3,5H,1-2H2,(H,6,7)']",['GFZWHAAOIVMHOI-UHFFFAOYSA-N']
2azetidinecarboxylic_cation->neut,2.01,azetidine-2-carboxylic,doi.org/10.1002/(SICI)1097-4601(1997)29:7<495::AID-KIN3>3.0.CO;2-P,['[H]C1([H])C([H])([H])[N+]([H])([H])[C@@]1([H])C(=O)[O-]'],['[#8]=[#6](-[#8-])-[#6@@]1(-[#7@+](-[#6@](-[#6@@]-1(-[H])-[H])(-[H])-[H])(-[H])-[H])-[H]'],"['InChI=1S/C4H7NO2/c6-4(7)3-1-2-5-3/h3,5H,1-2H2,(H,6,7)/t3-/m1/s1']",['IADUEWIQBXOCDZ-GSVOUGTGSA-N']
2azetidinecarboxylic_neut->an,10.21,azetidine-2-carboxylic,doi.org/10.1002/(SICI)1097-4601(1997)29:7<495::AID-KIN3>3.0.CO;2-P,['[H]C1([H])C([H])([H])[N+]([H])([H])[C@@]1([H])C(=O)[O-]'],['[#8]=[#6](-[#8-])-[#6@@]1(-[#7@+](-[#6@](-[#6@@]-1(-[H])-[H])(-[H])-[H])(-[H])-[H])-[H]'],"['InChI=1S/C4H7NO2/c6-4(7)3-1-2-5-3/h3,5H,1-2H2,(H,6,7)/t3-/m1/s1']",['IADUEWIQBXOCDZ-GSVOUGTGSA-N']
nphenylazetidine_cation->neut,3.6,N-phenylazetidine,ISBN-13/978-0124332799,['[H]c1c([H])c([H])c(N2C([H])([H])C([H])([H])C2([H])[H])c([H])c1[H]'],['[#7]1(-[#6@](-[#6@@](-[#6@@]-1(-[H])-[H])(-[H])-[H])(-[H])-[H])-[#6]1:[#6](:[#6](:[#6](:[#6](:[#6]:1-[H])-[H])-[H])-[H])-[H]'],"['InChI=1S/C9H11N/c1-2-5-9(6-3-1)10-7-4-8-10/h1-3,5-6H,4,7-8H2']",['JNWYXXQAOGBPNL-UHFFFAOYSA-N']
18diaminonaphtalene_cation->neut,4.61,"1,8-di(methylamino)-naphtalene",10.1023/A:1013868406075,['[H]c1c([H])c(N([H])[H])c2c(N([H])[H])c([H])c([H])c([H])c2c1[H]'],['[#7](-[#6]1:[#6]2:[#6](:[#6](:[#6](:[#6]:1-[H])-[H])-[H]):[#6](:[#6](:[#6](:[#6]:2-[#7](-[H])-[H])-[H])-[H])-[H])(-[H])-[H]'],"['InChI=1S/C10H10N2/c11-8-5-1-3-7-4-2-6-9(12)10(7)8/h1-6H,11-12H2']",['YFOOEYJGMMJJLS-UHFFFAOYSA-N']
18dimeaminonaphtalene_cation->neut,5.61,"1,8-di(methylamino)-naphtalene",10.1023/A:1013868406075,['[H]c1c([H])c(N([H])C([H])([H])[H])c2c(N([H])C([H])([H])[H])c([H])c([H])c([H])c2c1[H]'],['[#7](-[#6]1:[#6]2:[#6](:[#6](:[#6](:[#6]:1-[H])-[H])-[H]):[#6](:[#6](:[#6](:[#6]:2-[#7](-[#6@@](-[H])(-[H])-[H])-[H])-[H])-[H])-[H])(-[#6@@](-[H])(-[H])-[H])-[H]'],"['InChI=1S/C12H14N2/c1-13-10-7-3-5-9-6-4-8-11(14-2)12(9)10/h3-8,13-14H,1-2H3']",['XVOAHPOEMCETJM-UHFFFAOYSA-N']