compn,pKa,correct name,reference,smiles,smarts,inchi,inchiKey
pyridine26dimethyl35dicarboxylic_cation->neut,1.72,"pyridine-2,6-dimethyl-3,5-dicarboxylic acid",10.1021/je60031a032,"['[H]OC(=O)c1c(C([H])([H])[H])nc(C([H])([H])[H])c(C(=O)O[H])c1[H]', '[H]OC(=O)c1c([H])c(C(=O)[O-])c(C([H])([H])[H])[n+]([H])c1C([H])([H])[H]']","['[#8](-[#6](=[#8])-[#6]1:[#6](:[#6](:[#6](:[#7]:[#6]:1-[#6@@](-[H])(-[H])-[H])-[#6@@](-[H])(-[H])-[H])-[#6](-[#8]-[H])=[#8])-[H])-[H]', '[#8]=[#6](-[#8-])-[#6]1:[#6](:[#6](:[#6](:[#7+](:[#6]:1-[#6@@](-[H])(-[H])-[H])-[H])-[#6@@](-[H])(-[H])-[H])-[#6](-[#8]-[H])=[#8])-[H]']","['InChI=1S/C9H9NO4/c1-4-6(8(11)12)3-7(9(13)14)5(2)10-4/h3H,1-2H3,(H,11,12)(H,13,14)']",['WQFXJSOUBPGBGW-UHFFFAOYSA-N']
pyridine26dimethyl35dicarboxylic_neut->an,2.81,"pyridine-2,6-dimethyl-3,5-dicarboxylic acid",10.1021/je60031a032,"['[H]OC(=O)c1c(C([H])([H])[H])nc(C([H])([H])[H])c(C(=O)O[H])c1[H]', '[H]OC(=O)c1c([H])c(C(=O)[O-])c(C([H])([H])[H])[n+]([H])c1C([H])([H])[H]']","['[#8](-[#6](=[#8])-[#6]1:[#6](:[#6](:[#6](:[#7]:[#6]:1-[#6@@](-[H])(-[H])-[H])-[#6@@](-[H])(-[H])-[H])-[#6](-[#8]-[H])=[#8])-[H])-[H]', '[#8]=[#6](-[#8-])-[#6]1:[#6](:[#6](:[#6](:[#7+](:[#6]:1-[#6@@](-[H])(-[H])-[H])-[H])-[#6@@](-[H])(-[H])-[H])-[#6](-[#8]-[H])=[#8])-[H]']","['InChI=1S/C9H9NO4/c1-4-6(8(11)12)3-7(9(13)14)5(2)10-4/h3H,1-2H3,(H,11,12)(H,13,14)']",['WQFXJSOUBPGBGW-UHFFFAOYSA-N']
pyridine26dimethyl35dicarboxylic_an->2an,6.16,"pyridine-2,6-dimethyl-3,5-dicarboxylic acid",10.1021/je60031a032,"['[H]OC(=O)c1c(C([H])([H])[H])nc(C([H])([H])[H])c(C(=O)O[H])c1[H]', '[H]OC(=O)c1c([H])c(C(=O)[O-])c(C([H])([H])[H])[n+]([H])c1C([H])([H])[H]']","['[#8](-[#6](=[#8])-[#6]1:[#6](:[#6](:[#6](:[#7]:[#6]:1-[#6@@](-[H])(-[H])-[H])-[#6@@](-[H])(-[H])-[H])-[#6](-[#8]-[H])=[#8])-[H])-[H]', '[#8]=[#6](-[#8-])-[#6]1:[#6](:[#6](:[#6](:[#7+](:[#6]:1-[#6@@](-[H])(-[H])-[H])-[H])-[#6@@](-[H])(-[H])-[H])-[#6](-[#8]-[H])=[#8])-[H]']","['InChI=1S/C9H9NO4/c1-4-6(8(11)12)3-7(9(13)14)5(2)10-4/h3H,1-2H3,(H,11,12)(H,13,14)']",['WQFXJSOUBPGBGW-UHFFFAOYSA-N']
pyridine35dicarboxylic_cation->neut,1.1,"pyridine-3,5-dicarboxylic acid",10.1021/je60031a032,"['[H]OC(=O)c1c([H])nc([H])c(C(=O)O[H])c1[H]', '[H]OC(=O)c1c([H])c(C(=O)[O-])c([H])[n+]([H])c1[H]']","['[#8](-[#6](=[#8])-[#6]1:[#6](:[#6](:[#6](:[#7]:[#6]:1-[H])-[H])-[#6](-[#8]-[H])=[#8])-[H])-[H]', '[#8](-[#6](=[#8])-[#6]1:[#6](:[#6](:[#6](:[#7+](:[#6]:1-[H])-[H])-[H])-[#6](=[#8])-[#8-])-[H])-[H]']","['InChI=1S/C7H5NO4/c9-6(10)4-1-5(7(11)12)3-8-2-4/h1-3H,(H,9,10)(H,11,12)']",['MPFLRYZEEAQMLQ-UHFFFAOYSA-N']
pyridine35dicarboxylic_neut->an,2.72,"pyridine-3,5-dicarboxylic acid",10.1021/je60031a032,"['[H]OC(=O)c1c([H])nc([H])c(C(=O)O[H])c1[H]', '[H]OC(=O)c1c([H])c(C(=O)[O-])c([H])[n+]([H])c1[H]']","['[#8](-[#6](=[#8])-[#6]1:[#6](:[#6](:[#6](:[#7]:[#6]:1-[H])-[H])-[#6](-[#8]-[H])=[#8])-[H])-[H]', '[#8](-[#6](=[#8])-[#6]1:[#6](:[#6](:[#6](:[#7+](:[#6]:1-[H])-[H])-[H])-[#6](=[#8])-[#8-])-[H])-[H]']","['InChI=1S/C7H5NO4/c9-6(10)4-1-5(7(11)12)3-8-2-4/h1-3H,(H,9,10)(H,11,12)']",['MPFLRYZEEAQMLQ-UHFFFAOYSA-N']
pyridine35dicarboxylic_an->2an,4.62,"pyridine-3,5-dicarboxylic acid",10.1021/je60031a032,"['[H]OC(=O)c1c([H])nc([H])c(C(=O)O[H])c1[H]', '[H]OC(=O)c1c([H])c(C(=O)[O-])c([H])[n+]([H])c1[H]']","['[#8](-[#6](=[#8])-[#6]1:[#6](:[#6](:[#6](:[#7]:[#6]:1-[H])-[H])-[#6](-[#8]-[H])=[#8])-[H])-[H]', '[#8](-[#6](=[#8])-[#6]1:[#6](:[#6](:[#6](:[#7+](:[#6]:1-[H])-[H])-[H])-[#6](=[#8])-[#8-])-[H])-[H]']","['InChI=1S/C7H5NO4/c9-6(10)4-1-5(7(11)12)3-8-2-4/h1-3H,(H,9,10)(H,11,12)']",['MPFLRYZEEAQMLQ-UHFFFAOYSA-N']
pyridine246trimethyl35dicarboxylic_neut->an,1.77,"pyridine-2,4,6-trimethyl-3,5-dicarboxylic acid",10.1021/je60031a032,"['[H]OC(=O)c1c(C([H])([H])[H])nc(C([H])([H])[H])c(C(=O)O[H])c1C([H])([H])[H]', '[H]OC(=O)c1c(C([H])([H])[H])c(C(=O)[O-])c(C([H])([H])[H])[n+]([H])c1C([H])([H])[H]']","['[#8](-[#6](=[#8])-[#6]1:[#6](:[#6](:[#6](:[#7]:[#6]:1-[#6@@](-[H])(-[H])-[H])-[#6@@](-[H])(-[H])-[H])-[#6](-[#8]-[H])=[#8])-[#6@@](-[H])(-[H])-[H])-[H]', '[#8]=[#6](-[#8-])-[#6]1:[#6](:[#6](:[#6](:[#7+](:[#6]:1-[#6@@](-[H])(-[H])-[H])-[H])-[#6@@](-[H])(-[H])-[H])-[#6](-[#8]-[H])=[#8])-[#6@@](-[H])(-[H])-[H]']","['InChI=1S/C10H11NO4/c1-4-7(9(12)13)5(2)11-6(3)8(4)10(14)15/h1-3H3,(H,12,13)(H,14,15)']",['KQJXTMLVGZASEQ-UHFFFAOYSA-N']
pyridine246trimethyl35dicarboxylic_an->2an,6.54,"pyridine-2,4,6-trimethyl-3,5-dicarboxylic acid",10.1021/je60031a032,"['[H]OC(=O)c1c(C([H])([H])[H])nc(C([H])([H])[H])c(C(=O)O[H])c1C([H])([H])[H]', '[H]OC(=O)c1c(C([H])([H])[H])c(C(=O)[O-])c(C([H])([H])[H])[n+]([H])c1C([H])([H])[H]']","['[#8](-[#6](=[#8])-[#6]1:[#6](:[#6](:[#6](:[#7]:[#6]:1-[#6@@](-[H])(-[H])-[H])-[#6@@](-[H])(-[H])-[H])-[#6](-[#8]-[H])=[#8])-[#6@@](-[H])(-[H])-[H])-[H]', '[#8]=[#6](-[#8-])-[#6]1:[#6](:[#6](:[#6](:[#7+](:[#6]:1-[#6@@](-[H])(-[H])-[H])-[H])-[#6@@](-[H])(-[H])-[H])-[#6](-[#8]-[H])=[#8])-[#6@@](-[H])(-[H])-[H]']","['InChI=1S/C10H11NO4/c1-4-7(9(12)13)5(2)11-6(3)8(4)10(14)15/h1-3H3,(H,12,13)(H,14,15)']",['KQJXTMLVGZASEQ-UHFFFAOYSA-N']
chelidamic_an->2an,3.2,"4-Hydroxypyridine-2,6-dicarboxylic acid",10.1021/ic50004a037,"['[H]OC(=O)c1nc(C(=O)[O-])c([H])c(O[H])c1[H]', '[H]OC(=O)c1c([H])c(=O)c([H])c(C(=O)[O-])n1[H]', '[H]Oc1c([H])c(C(=O)[O-])[n+]([H])c(C(=O)[O-])c1[H]']","['[#8](-[#6]1:[#6](:[#6](:[#7]:[#6](:[#6]:1-[H])-[#6](-[#8]-[H])=[#8])-[#6](=[#8])-[#8-])-[H])-[H]', '[#8]=[#6]1:[#6](:[#6](:[#7](:[#6](:[#6]:1-[H])-[#6](=[#8])-[#8]-[H])-[H])-[#6](=[#8])-[#8-])-[H]', '[#8](-[#6]1:[#6](:[#6](:[#7+](:[#6](:[#6]:1-[H])-[#6](=[#8])-[#8-])-[H])-[#6](=[#8])-[#8-])-[H])-[H]']","['InChI=1S/C7H5NO5/c9-3-1-4(6(10)11)8-5(2-3)7(12)13/h1-2H,(H,8,9)(H,10,11)(H,12,13)/p-1']",['XTLJJHGQACAZMS-UHFFFAOYSA-M']
chelidamic_2an->3an,11.4,"4-Hydroxypyridine-2,6-dicarboxylic acid",10.1021/ic50004a037,"['[H]OC(=O)c1nc(C(=O)[O-])c([H])c(O[H])c1[H]', '[H]OC(=O)c1c([H])c(=O)c([H])c(C(=O)[O-])n1[H]', '[H]Oc1c([H])c(C(=O)[O-])[n+]([H])c(C(=O)[O-])c1[H]']","['[#8](-[#6]1:[#6](:[#6](:[#7]:[#6](:[#6]:1-[H])-[#6](-[#8]-[H])=[#8])-[#6](=[#8])-[#8-])-[H])-[H]', '[#8]=[#6]1:[#6](:[#6](:[#7](:[#6](:[#6]:1-[H])-[#6](=[#8])-[#8]-[H])-[H])-[#6](=[#8])-[#8-])-[H]', '[#8](-[#6]1:[#6](:[#6](:[#7+](:[#6](:[#6]:1-[H])-[#6](=[#8])-[#8-])-[H])-[#6](=[#8])-[#8-])-[H])-[H]']","['InChI=1S/C7H5NO5/c9-3-1-4(6(10)11)8-5(2-3)7(12)13/h1-2H,(H,8,9)(H,10,11)(H,12,13)/p-1']",['XTLJJHGQACAZMS-UHFFFAOYSA-M']
pyridine345tricarboxylic_2an->3an,5.48,"pyridine-3,4,5-tricarboxylic acid",10.1021/je60031a032,"['[H]OC(=O)c1c([H])nc([H])c(C(=O)O[H])c1C(=O)O[H]', '[H]OC(=O)c1c(C(=O)[O-])c([H])[n+]([H])c([H])c1C(=O)O[H]', '[H]OC(=O)c1c(C(=O)[O-])c(C(=O)O[H])c([H])[n+]([H])c1[H]']","['[#8](-[#6](=[#8])-[#6]1:[#6](:[#7]:[#6](:[#6](:[#6]:1-[#6](-[#8]-[H])=[#8])-[#6](-[#8]-[H])=[#8])-[H])-[H])-[H]', '[#8](-[#6](=[#8])-[#6]1:[#6](:[#7+](:[#6](:[#6](:[#6]:1-[#6](-[#8]-[H])=[#8])-[#6](=[#8])-[#8-])-[H])-[H])-[H])-[H]', '[#8](-[#6](=[#8])-[#6]1:[#6](:[#7+](:[#6](:[#6](:[#6]:1-[#6](=[#8])-[#8-])-[#6](=[#8])-[#8]-[H])-[H])-[H])-[H])-[H]']","['InChI=1S/C8H5NO6/c10-6(11)3-1-9-2-4(7(12)13)5(3)8(14)15/h1-2H,(H,10,11)(H,12,13)(H,14,15)']",['LMPAEFPOWZGJDY-UHFFFAOYSA-N']
xanthopterin_cation->neut,2.17,xanthopterin,10.1002/hlca.19920750718,"['[H]c1c([O-])nc2c(=O)n([H])c(=[N+]([H])[H])nc-2n1[H]', '[H]c1nc2nc(N([H])[H])n([H])c(=O)c2n([H])c1=O', '[H]c1nc2c(c(=O)nc(N([H])[H])n2[H])n([H])c1=O', '[H]c1c([O-])[n+]([H])c2c(=O)nc(N([H])[H])nc-2n1[H]', '[H]c1nc2c(nc1[O-])c(=O)n([H])c(=[N+]([H])[H])n2[H]', '[H]c1c([O-])nc2c(=O)nc(N([H])[H])n([H])c2[n+]1[H]']","['[#8]=[#6]1:[#7](:[#6](:[#7]:[#6]2:[#7](:[#6](:[#6](-[#8-]):[#7]:[#6]:1-2)-[H])-[H])=[#7+](-[H])-[H])-[H]', '[#8]=[#6]1:[#7](:[#6](:[#7]:[#6]2:[#7]:[#6](:[#6](=[#8]):[#7](:[#6]:2:1)-[H])-[H])-[#7](-[H])-[H])-[H]', '[#8]=[#6]1:[#7]:[#6](:[#7](:[#6]2:[#7]:[#6](:[#6](=[#8]):[#7](:[#6]:2:1)-[H])-[H])-[H])-[#7](-[H])-[H]', '[#8]=[#6]1:[#7]:[#6](:[#7]:[#6]2:[#7](:[#6](:[#6](-[#8-]):[#7+](:[#6]:1-2)-[H])-[H])-[H])-[#7](-[H])-[H]', '[#8]=[#6]1:[#7](:[#6](:[#7](:[#6]2:[#7]:[#6](:[#6](-[#8-]):[#7]:[#6]:2:1)-[H])-[H])=[#7+](-[H])-[H])-[H]', '[#8]=[#6]1:[#7]:[#6](:[#7](:[#6]2:[#7+](:[#6](:[#6](-[#8-]):[#7]:[#6]:2:1)-[H])-[H])-[H])-[#7](-[H])-[H]']","['InChI=1S/C6H5N5O2/c7-6-10-4-3(5(13)11-6)9-2(12)1-8-4/h1H,(H,9,12)(H3,7,8,10,11,13)']",['VURKRJGMSKJIQX-UHFFFAOYSA-N']
xanthopterin_neut->an,6.3,xanthopterin,10.1002/hlca.19920750718,"['[H]c1c([O-])nc2c(=O)n([H])c(=[N+]([H])[H])nc-2n1[H]', '[H]c1nc2nc(N([H])[H])n([H])c(=O)c2n([H])c1=O', '[H]c1nc2c(c(=O)nc(N([H])[H])n2[H])n([H])c1=O', '[H]c1c([O-])[n+]([H])c2c(=O)nc(N([H])[H])nc-2n1[H]', '[H]c1nc2c(nc1[O-])c(=O)n([H])c(=[N+]([H])[H])n2[H]', '[H]c1c([O-])nc2c(=O)nc(N([H])[H])n([H])c2[n+]1[H]']","['[#8]=[#6]1:[#7](:[#6](:[#7]:[#6]2:[#7](:[#6](:[#6](-[#8-]):[#7]:[#6]:1-2)-[H])-[H])=[#7+](-[H])-[H])-[H]', '[#8]=[#6]1:[#7](:[#6](:[#7]:[#6]2:[#7]:[#6](:[#6](=[#8]):[#7](:[#6]:2:1)-[H])-[H])-[#7](-[H])-[H])-[H]', '[#8]=[#6]1:[#7]:[#6](:[#7](:[#6]2:[#7]:[#6](:[#6](=[#8]):[#7](:[#6]:2:1)-[H])-[H])-[H])-[#7](-[H])-[H]', '[#8]=[#6]1:[#7]:[#6](:[#7]:[#6]2:[#7](:[#6](:[#6](-[#8-]):[#7+](:[#6]:1-2)-[H])-[H])-[H])-[#7](-[H])-[H]', '[#8]=[#6]1:[#7](:[#6](:[#7](:[#6]2:[#7]:[#6](:[#6](-[#8-]):[#7]:[#6]:2:1)-[H])-[H])=[#7+](-[H])-[H])-[H]', '[#8]=[#6]1:[#7]:[#6](:[#7](:[#6]2:[#7+](:[#6](:[#6](-[#8-]):[#7]:[#6]:2:1)-[H])-[H])-[H])-[#7](-[H])-[H]']","['InChI=1S/C6H5N5O2/c7-6-10-4-3(5(13)11-6)9-2(12)1-8-4/h1H,(H,9,12)(H3,7,8,10,11,13)']",['VURKRJGMSKJIQX-UHFFFAOYSA-N']
xanthopterin_an->2an,9.23,xanthopterin,10.1002/hlca.19920750718,"['[H]c1c([O-])nc2c(=O)n([H])c(=[N+]([H])[H])nc-2n1[H]', '[H]c1nc2nc(N([H])[H])n([H])c(=O)c2n([H])c1=O', '[H]c1nc2c(c(=O)nc(N([H])[H])n2[H])n([H])c1=O', '[H]c1c([O-])[n+]([H])c2c(=O)nc(N([H])[H])nc-2n1[H]', '[H]c1nc2c(nc1[O-])c(=O)n([H])c(=[N+]([H])[H])n2[H]', '[H]c1c([O-])nc2c(=O)nc(N([H])[H])n([H])c2[n+]1[H]']","['[#8]=[#6]1:[#7](:[#6](:[#7]:[#6]2:[#7](:[#6](:[#6](-[#8-]):[#7]:[#6]:1-2)-[H])-[H])=[#7+](-[H])-[H])-[H]', '[#8]=[#6]1:[#7](:[#6](:[#7]:[#6]2:[#7]:[#6](:[#6](=[#8]):[#7](:[#6]:2:1)-[H])-[H])-[#7](-[H])-[H])-[H]', '[#8]=[#6]1:[#7]:[#6](:[#7](:[#6]2:[#7]:[#6](:[#6](=[#8]):[#7](:[#6]:2:1)-[H])-[H])-[H])-[#7](-[H])-[H]', '[#8]=[#6]1:[#7]:[#6](:[#7]:[#6]2:[#7](:[#6](:[#6](-[#8-]):[#7+](:[#6]:1-2)-[H])-[H])-[H])-[#7](-[H])-[H]', '[#8]=[#6]1:[#7](:[#6](:[#7](:[#6]2:[#7]:[#6](:[#6](-[#8-]):[#7]:[#6]:2:1)-[H])-[H])=[#7+](-[H])-[H])-[H]', '[#8]=[#6]1:[#7]:[#6](:[#7](:[#6]2:[#7+](:[#6](:[#6](-[#8-]):[#7]:[#6]:2:1)-[H])-[H])-[H])-[#7](-[H])-[H]']","['InChI=1S/C6H5N5O2/c7-6-10-4-3(5(13)11-6)9-2(12)1-8-4/h1H,(H,9,12)(H3,7,8,10,11,13)']",['VURKRJGMSKJIQX-UHFFFAOYSA-N']
8oxy24diaminopteridine_cation->neut,2.17,"8-oxidane-2,4-diaminopteridine",10.1002/hlca.19920750718,['[H]c1nc2c(N([H])[H])nc(=[N+]([H])[H])nc-2n([O-])c1[H]'],['[#7]1:[#6]2:[#7](:[#6](:[#6](:[#7]:[#6]-2:[#6](:[#7]:[#6]:1=[#7+](-[H])-[H])-[#7](-[H])-[H])-[H])-[H])-[#8-]'],"['InChI=1S/C6H5N6O/c7-4-3-5(11-6(8)10-4)12(13)2-1-9-3/h1-2H,(H3,7,8,10)/q-1/p+1']",['PHWQCIFYNLBNRK-UHFFFAOYSA-O']
8oxypterin_cation->neut,-0.63,8-oxidane-pterin,10.1002/hlca.19920750718,"['[H]c1c([H])[n+]([H])c2c(=O)nc(N([H])[H])nc-2n1[O-]', '[H]Oc1nc(=[N+]([H])[H])nc2n([O-])c([H])c([H])nc1-2', '[H]c1nc2c(=O)nc(N([H])[H])n([H])c2[n+]([O-])c1[H]', '[H]c1nc2c(=O)n([H])c(=[N+]([H])[H])nc-2n([O-])c1[H]', '[H]On1c2nc(N([H])[H])nc(=O)c-2nc([H])c1[H]']","['[#8]=[#6]1:[#7]:[#6](:[#7]:[#6]2:[#7](:[#6](:[#6](:[#7+](:[#6]:1-2)-[H])-[H])-[H])-[#8-])-[#7](-[H])-[H]', '[#8](-[#6]1:[#7]:[#6](:[#7]:[#6]2:[#7](:[#6](:[#6](:[#7]:[#6]:1-2)-[H])-[H])-[#8-])=[#7+](-[H])-[H])-[H]', '[#8]=[#6]1:[#7]:[#6](:[#7](:[#6]2:[#7+](:[#6](:[#6](:[#7]:[#6]:2:1)-[H])-[H])-[#8-])-[H])-[#7](-[H])-[H]', '[#8]=[#6]1:[#7](:[#6](:[#7]:[#6]2:[#7](:[#6](:[#6](:[#7]:[#6]:1-2)-[H])-[H])-[#8-])=[#7+](-[H])-[H])-[H]', '[#8]=[#6]1:[#7]:[#6](:[#7]:[#6]2:[#7](:[#6](:[#6](:[#7]:[#6]:1-2)-[H])-[H])-[#8]-[H])-[#7](-[H])-[H]']","['InChI=1S/C6H4N5O2/c7-6-9-4-3(5(12)10-6)8-1-2-11(4)13/h1-2H,(H2,7,10,12)/q-1/p+1', 'InChI=1S/C6H5N5O2/c7-6-9-4-3(5(12)10-6)8-1-2-11(4)13/h1-2H,(H3,7,9,10,12)', 'InChI=1S/C6H5N5O2/c7-6-9-4-3(5(12)10-6)8-1-2-11(4)13/h1-2,13H,(H2,7,10,12)']","['WNTJAUHAKABYIC-UHFFFAOYSA-O', 'LLGJLZFBDMQYIH-UHFFFAOYSA-N', 'UPYISYTVIBPQKN-UHFFFAOYSA-N']"
8oxypterin_neut->an,6.94,8-oxidane-pterin,10.1002/hlca.19920750718,"['[H]c1c([H])[n+]([H])c2c(=O)nc(N([H])[H])nc-2n1[O-]', '[H]Oc1nc(=[N+]([H])[H])nc2n([O-])c([H])c([H])nc1-2', '[H]c1nc2c(=O)nc(N([H])[H])n([H])c2[n+]([O-])c1[H]', '[H]c1nc2c(=O)n([H])c(=[N+]([H])[H])nc-2n([O-])c1[H]', '[H]On1c2nc(N([H])[H])nc(=O)c-2nc([H])c1[H]']","['[#8]=[#6]1:[#7]:[#6](:[#7]:[#6]2:[#7](:[#6](:[#6](:[#7+](:[#6]:1-2)-[H])-[H])-[H])-[#8-])-[#7](-[H])-[H]', '[#8](-[#6]1:[#7]:[#6](:[#7]:[#6]2:[#7](:[#6](:[#6](:[#7]:[#6]:1-2)-[H])-[H])-[#8-])=[#7+](-[H])-[H])-[H]', '[#8]=[#6]1:[#7]:[#6](:[#7](:[#6]2:[#7+](:[#6](:[#6](:[#7]:[#6]:2:1)-[H])-[H])-[#8-])-[H])-[#7](-[H])-[H]', '[#8]=[#6]1:[#7](:[#6](:[#7]:[#6]2:[#7](:[#6](:[#6](:[#7]:[#6]:1-2)-[H])-[H])-[#8-])=[#7+](-[H])-[H])-[H]', '[#8]=[#6]1:[#7]:[#6](:[#7]:[#6]2:[#7](:[#6](:[#6](:[#7]:[#6]:1-2)-[H])-[H])-[#8]-[H])-[#7](-[H])-[H]']","['InChI=1S/C6H4N5O2/c7-6-9-4-3(5(12)10-6)8-1-2-11(4)13/h1-2H,(H2,7,10,12)/q-1/p+1', 'InChI=1S/C6H5N5O2/c7-6-9-4-3(5(12)10-6)8-1-2-11(4)13/h1-2H,(H3,7,9,10,12)', 'InChI=1S/C6H5N5O2/c7-6-9-4-3(5(12)10-6)8-1-2-11(4)13/h1-2,13H,(H2,7,10,12)']","['WNTJAUHAKABYIC-UHFFFAOYSA-O', 'LLGJLZFBDMQYIH-UHFFFAOYSA-N', 'UPYISYTVIBPQKN-UHFFFAOYSA-N']"
6chloro24diaminopteridine_cation->neut,4.36,"6-chloro-2,4-diaminopteridine",10.1002/hlca.19920750718,['[H]c1nc2nc(N([H])[H])nc(N([H])[H])c2nc1Cl'],['[#17]-[#6]1:[#7]:[#6]2:[#6](:[#7]:[#6](:[#7]:[#6]:2-[#7](-[H])-[H])-[#7](-[H])-[H]):[#7]:[#6]:1-[H]'],"['InChI=1S/C6H5ClN6/c7-2-1-10-5-3(11-2)4(8)12-6(9)13-5/h1H,(H4,8,9,10,12,13)']",['OTYIEMDMJHKNBP-UHFFFAOYSA-N']
2amino56dihydro6thioxopteridin43Hone_cation->neut,0.97,"2-Amino-5,6-dihydro-6-thioxopteridin-4(3H)-one",10.1002/hlca.19920750718,"['[H]c1nc2c(nc1[S-])c([O-])[n+]([H])c(=[N+]([H])[H])n2[H]', '[H]c1nc2nc(N([H])[H])n([H])c(=O)c2n([H])c1=S', '[H]Oc1nc(N([H])[H])nc2nc([H])c(=S)n([H])c12', '[H]/[O+]=c1\\c2nc([S-])c([H])nc2nc(N([H])[H])n1[H]', '[H]/[O+]=c1/c2nc([S-])c([H])nc2nc(N([H])[H])n1[H]', '[H]c1c([S-])nc2c([O-])nc(=[N+]([H])[H])[n+]([H])c-2n1[H]', '[H]c1nc2c(c(=O)nc(N([H])[H])n2[H])n([H])c1=S', '[H]Oc1nc(=[N+]([H])[H])nc2n([H])c([H])c([S-])nc1-2', '[H]Oc1nc(=[N+]([H])[H])n([H])c2nc([H])c([S-])nc12', '[H]c1c(=S)n([H])c2c([O-])nc(N([H])[H])nc2[n+]1[H]', '[H]c1c([S-])nc2c([O-])[n+]([H])c(=[N+]([H])[H])nc-2n1[H]']","['[#16]-[#6]1:[#7]:[#6]2:[#6](:[#7](:[#6](:[#7+](:[#6]:2-[#8-])-[H])=[#7+](-[H])-[H])-[H]):[#7]:[#6]:1-[H]', '[#16]=[#6]1:[#7](:[#6]2:[#6](:[#7]:[#6](:[#7](:[#6]:2=[#8])-[H])-[#7](-[H])-[H]):[#7]:[#6]:1-[H])-[H]', '[#16]=[#6]1:[#7](:[#6]2:[#6](:[#7]:[#6](:[#7]:[#6]:2-[#8]-[H])-[#7](-[H])-[H]):[#7]:[#6]:1-[H])-[H]', '[#16]-[#6]1:[#7]:[#6]2:[#6](:[#7]:[#6](:[#7](:[#6]:2=[#8+]/[H])-[H])-[#7](-[H])-[H]):[#7]:[#6]:1-[H]', '[#16]-[#6]1:[#7]:[#6]2:[#6](:[#7]:[#6](:[#7](:[#6]:2=[#8+]\\[H])-[H])-[#7](-[H])-[H]):[#7]:[#6]:1-[H]', '[#16]-[#6]1:[#7]:[#6]2-[#6](:[#7+](:[#6](:[#7]:[#6]:2-[#8-])=[#7+](-[H])-[H])-[H]):[#7](:[#6]:1-[H])-[H]', '[#16]=[#6]1:[#7](:[#6]2:[#6](:[#7](:[#6](:[#7]:[#6]:2=[#8])-[#7](-[H])-[H])-[H]):[#7]:[#6]:1-[H])-[H]', '[#16]-[#6]1:[#7]:[#6]2-[#6](:[#7]:[#6](:[#7]:[#6]:2-[#8]-[H])=[#7+](-[H])-[H]):[#7](:[#6]:1-[H])-[H]', '[#16]-[#6]1:[#7]:[#6]2:[#6](:[#7](:[#6](:[#7]:[#6]:2-[#8]-[H])=[#7+](-[H])-[H])-[H]):[#7]:[#6]:1-[H]', '[#16]=[#6]1:[#7](:[#6]2:[#6](:[#7]:[#6](:[#7]:[#6]:2-[#8-])-[#7](-[H])-[H]):[#7+](:[#6]:1-[H])-[H])-[H]', '[#16]-[#6]1:[#7]:[#6]2-[#6](:[#7]:[#6](:[#7+](:[#6]:2-[#8-])-[H])=[#7+](-[H])-[H]):[#7](:[#6]:1-[H])-[H]']","['InChI=1S/C6H5N5OS/c7-6-10-4-3(5(12)11-6)9-2(13)1-8-4/h1H,(H,9,13)(H3,7,8,10,11,12)']",['MDZQKFGHJVAHSH-UHFFFAOYSA-N']
2amino56dihydro6thioxopteridin43Hone_neut->an,4.7,"2-Amino-5,6-dihydro-6-thioxopteridin-4(3H)-one",10.1002/hlca.19920750718,"['[H]c1nc2c(nc1[S-])c([O-])[n+]([H])c(=[N+]([H])[H])n2[H]', '[H]c1nc2nc(N([H])[H])n([H])c(=O)c2n([H])c1=S', '[H]Oc1nc(N([H])[H])nc2nc([H])c(=S)n([H])c12', '[H]/[O+]=c1\\c2nc([S-])c([H])nc2nc(N([H])[H])n1[H]', '[H]/[O+]=c1/c2nc([S-])c([H])nc2nc(N([H])[H])n1[H]', '[H]c1c([S-])nc2c([O-])nc(=[N+]([H])[H])[n+]([H])c-2n1[H]', '[H]c1nc2c(c(=O)nc(N([H])[H])n2[H])n([H])c1=S', '[H]Oc1nc(=[N+]([H])[H])nc2n([H])c([H])c([S-])nc1-2', '[H]Oc1nc(=[N+]([H])[H])n([H])c2nc([H])c([S-])nc12', '[H]c1c(=S)n([H])c2c([O-])nc(N([H])[H])nc2[n+]1[H]', '[H]c1c([S-])nc2c([O-])[n+]([H])c(=[N+]([H])[H])nc-2n1[H]']","['[#16]-[#6]1:[#7]:[#6]2:[#6](:[#7](:[#6](:[#7+](:[#6]:2-[#8-])-[H])=[#7+](-[H])-[H])-[H]):[#7]:[#6]:1-[H]', '[#16]=[#6]1:[#7](:[#6]2:[#6](:[#7]:[#6](:[#7](:[#6]:2=[#8])-[H])-[#7](-[H])-[H]):[#7]:[#6]:1-[H])-[H]', '[#16]=[#6]1:[#7](:[#6]2:[#6](:[#7]:[#6](:[#7]:[#6]:2-[#8]-[H])-[#7](-[H])-[H]):[#7]:[#6]:1-[H])-[H]', '[#16]-[#6]1:[#7]:[#6]2:[#6](:[#7]:[#6](:[#7](:[#6]:2=[#8+]/[H])-[H])-[#7](-[H])-[H]):[#7]:[#6]:1-[H]', '[#16]-[#6]1:[#7]:[#6]2:[#6](:[#7]:[#6](:[#7](:[#6]:2=[#8+]\\[H])-[H])-[#7](-[H])-[H]):[#7]:[#6]:1-[H]', '[#16]-[#6]1:[#7]:[#6]2-[#6](:[#7+](:[#6](:[#7]:[#6]:2-[#8-])=[#7+](-[H])-[H])-[H]):[#7](:[#6]:1-[H])-[H]', '[#16]=[#6]1:[#7](:[#6]2:[#6](:[#7](:[#6](:[#7]:[#6]:2=[#8])-[#7](-[H])-[H])-[H]):[#7]:[#6]:1-[H])-[H]', '[#16]-[#6]1:[#7]:[#6]2-[#6](:[#7]:[#6](:[#7]:[#6]:2-[#8]-[H])=[#7+](-[H])-[H]):[#7](:[#6]:1-[H])-[H]', '[#16]-[#6]1:[#7]:[#6]2:[#6](:[#7](:[#6](:[#7]:[#6]:2-[#8]-[H])=[#7+](-[H])-[H])-[H]):[#7]:[#6]:1-[H]', '[#16]=[#6]1:[#7](:[#6]2:[#6](:[#7]:[#6](:[#7]:[#6]:2-[#8-])-[#7](-[H])-[H]):[#7+](:[#6]:1-[H])-[H])-[H]', '[#16]-[#6]1:[#7]:[#6]2-[#6](:[#7]:[#6](:[#7+](:[#6]:2-[#8-])-[H])=[#7+](-[H])-[H]):[#7](:[#6]:1-[H])-[H]']","['InChI=1S/C6H5N5OS/c7-6-10-4-3(5(12)11-6)9-2(13)1-8-4/h1H,(H,9,13)(H3,7,8,10,11,12)']",['MDZQKFGHJVAHSH-UHFFFAOYSA-N']
2amino56dihydro6thioxopteridin43Hone_an->2an,9.23,"2-Amino-5,6-dihydro-6-thioxopteridin-4(3H)-one",10.1002/hlca.19920750718,"['[H]c1nc2c(nc1[S-])c([O-])[n+]([H])c(=[N+]([H])[H])n2[H]', '[H]c1nc2nc(N([H])[H])n([H])c(=O)c2n([H])c1=S', '[H]Oc1nc(N([H])[H])nc2nc([H])c(=S)n([H])c12', '[H]/[O+]=c1\\c2nc([S-])c([H])nc2nc(N([H])[H])n1[H]', '[H]/[O+]=c1/c2nc([S-])c([H])nc2nc(N([H])[H])n1[H]', '[H]c1c([S-])nc2c([O-])nc(=[N+]([H])[H])[n+]([H])c-2n1[H]', '[H]c1nc2c(c(=O)nc(N([H])[H])n2[H])n([H])c1=S', '[H]Oc1nc(=[N+]([H])[H])nc2n([H])c([H])c([S-])nc1-2', '[H]Oc1nc(=[N+]([H])[H])n([H])c2nc([H])c([S-])nc12', '[H]c1c(=S)n([H])c2c([O-])nc(N([H])[H])nc2[n+]1[H]', '[H]c1c([S-])nc2c([O-])[n+]([H])c(=[N+]([H])[H])nc-2n1[H]']","['[#16]-[#6]1:[#7]:[#6]2:[#6](:[#7](:[#6](:[#7+](:[#6]:2-[#8-])-[H])=[#7+](-[H])-[H])-[H]):[#7]:[#6]:1-[H]', '[#16]=[#6]1:[#7](:[#6]2:[#6](:[#7]:[#6](:[#7](:[#6]:2=[#8])-[H])-[#7](-[H])-[H]):[#7]:[#6]:1-[H])-[H]', '[#16]=[#6]1:[#7](:[#6]2:[#6](:[#7]:[#6](:[#7]:[#6]:2-[#8]-[H])-[#7](-[H])-[H]):[#7]:[#6]:1-[H])-[H]', '[#16]-[#6]1:[#7]:[#6]2:[#6](:[#7]:[#6](:[#7](:[#6]:2=[#8+]/[H])-[H])-[#7](-[H])-[H]):[#7]:[#6]:1-[H]', '[#16]-[#6]1:[#7]:[#6]2:[#6](:[#7]:[#6](:[#7](:[#6]:2=[#8+]\\[H])-[H])-[#7](-[H])-[H]):[#7]:[#6]:1-[H]', '[#16]-[#6]1:[#7]:[#6]2-[#6](:[#7+](:[#6](:[#7]:[#6]:2-[#8-])=[#7+](-[H])-[H])-[H]):[#7](:[#6]:1-[H])-[H]', '[#16]=[#6]1:[#7](:[#6]2:[#6](:[#7](:[#6](:[#7]:[#6]:2=[#8])-[#7](-[H])-[H])-[H]):[#7]:[#6]:1-[H])-[H]', '[#16]-[#6]1:[#7]:[#6]2-[#6](:[#7]:[#6](:[#7]:[#6]:2-[#8]-[H])=[#7+](-[H])-[H]):[#7](:[#6]:1-[H])-[H]', '[#16]-[#6]1:[#7]:[#6]2:[#6](:[#7](:[#6](:[#7]:[#6]:2-[#8]-[H])=[#7+](-[H])-[H])-[H]):[#7]:[#6]:1-[H]', '[#16]=[#6]1:[#7](:[#6]2:[#6](:[#7]:[#6](:[#7]:[#6]:2-[#8-])-[#7](-[H])-[H]):[#7+](:[#6]:1-[H])-[H])-[H]', '[#16]-[#6]1:[#7]:[#6]2-[#6](:[#7]:[#6](:[#7+](:[#6]:2-[#8-])-[H])=[#7+](-[H])-[H]):[#7](:[#6]:1-[H])-[H]']","['InChI=1S/C6H5N5OS/c7-6-10-4-3(5(12)11-6)9-2(13)1-8-4/h1H,(H,9,13)(H3,7,8,10,11,12)']",['MDZQKFGHJVAHSH-UHFFFAOYSA-N']