compn,pKa,correct name,reference,smiles,smarts,inchi,inchiKey
1methyl4phenylurazole_neut->an,4.7,1-methyl-4-phenyl-urazole,10.1021/jo00019a034,"['[H]Oc1nn(C([H])([H])[H])c(=O)n1-c1c([H])c([H])c([H])c([H])c1[H]', '[H]Oc1n(C([H])([H])[H])nc([O-])[n+]1-c1c([H])c([H])c([H])c([H])c1[H]', '[H]c1c([H])c([H])c(-n2c(=O)n([H])n(C([H])([H])[H])c2=O)c([H])c1[H]']","['[#8]=[#6]1:[#7](:[#7]:[#6](-[#8]-[H]):[#7]:1-[#6]1:[#6](:[#6](:[#6](:[#6](:[#6]:1-[H])-[H])-[H])-[H])-[H])-[#6@](-[H])(-[H])-[H]', '[#8](-[#6]1:[#7](:[#7]:[#6](-[#8-]):[#7+]:1-[#6]1:[#6](:[#6](:[#6](:[#6](:[#6]:1-[H])-[H])-[H])-[H])-[H])-[#6@](-[H])(-[H])-[H])-[H]', '[#8]=[#6]1:[#7](:[#7](:[#6](=[#8]):[#7]:1-[#6]1:[#6](:[#6](:[#6](:[#6](:[#6]:1-[H])-[H])-[H])-[H])-[H])-[H])-[#6@](-[H])(-[H])-[H]']","['InChI=1S/C9H9N3O2/c1-11-9(14)12(8(13)10-11)7-5-3-2-4-6-7/h2-6H,1H3,(H,10,13)']",['RJNRHWZMHWQLBU-UHFFFAOYSA-N']
1methyl2phenylurazole_neut->an,6.97,1-methyl-2-phenyl-urazole,10.1021/jo00026a001,['[H]c1c([H])c([H])c(-n2c(=O)n([H])c(=O)n2C([H])([H])[H])c([H])c1[H]'],['[#8]=[#6]1:[#7](:[#7](:[#6](=[#8]):[#7]:1-[H])-[#6]1:[#6](:[#6](:[#6](:[#6](:[#6]:1-[H])-[H])-[H])-[H])-[H])-[#6@](-[H])(-[H])-[H]'],"['InChI=1S/C9H9N3O2/c1-11-8(13)10-9(14)12(11)7-5-3-2-4-6-7/h2-6H,1H3,(H,10,13,14)']",['XARDRJRIFMFQJX-UHFFFAOYSA-N']
1methylxanthine_neut->an,7.7,1-methylxanthine,Lange's handbook of chemistry,"['[H]Oc1c2nc([H])nc-2n([H])c(=O)n1C([H])([H])[H]', '[H]Oc1c2nc([H])n([H])c2nc(=O)n1C([H])([H])[H]', '[H]c1nc2c(c(=O)n(C([H])([H])[H])c(=O)n2[H])n1[H]', '[H]Oc1nc2nc([H])n([H])c2c(=O)n1C([H])([H])[H]', '[H]Oc1nc2c(nc([H])n2[H])c(=O)n1C([H])([H])[H]', '[H]c1n([H])c2c(=O)n(C([H])([H])[H])c([O-])nc2[n+]1[H]', '[H]c1nc2c(=O)n(C([H])([H])[H])c(=O)n([H])c2n1[H]', '[H]Oc1c2c(nc([H])n2[H])nc(=O)n1C([H])([H])[H]', '[H]Oc1nc2nc([H])nc-2c(O[H])n1C([H])([H])[H]']","['[#8](-[#6]1:[#7](:[#6](=[#8]):[#7](:[#6]2:[#7]:[#6](:[#7]:[#6]:1-2)-[H])-[H])-[#6@](-[H])(-[H])-[H])-[H]', '[#8](-[#6]1:[#7](:[#6](=[#8]):[#7]:[#6]2:[#7](:[#6](:[#7]:[#6]:2:1)-[H])-[H])-[#6@](-[H])(-[H])-[H])-[H]', '[#8]=[#6]1:[#7](:[#6](=[#8]):[#7](:[#6]2:[#7]:[#6](:[#7](:[#6]:2:1)-[H])-[H])-[H])-[#6@](-[H])(-[H])-[H]', '[#8]=[#6]1:[#7](:[#6](-[#8]-[H]):[#7]:[#6]2:[#7]:[#6](:[#7](:[#6]:2:1)-[H])-[H])-[#6@](-[H])(-[H])-[H]', '[#8]=[#6]1:[#7](:[#6](-[#8]-[H]):[#7]:[#6]2:[#7](:[#6](:[#7]:[#6]:2:1)-[H])-[H])-[#6@](-[H])(-[H])-[H]', '[#8]=[#6]1:[#7](:[#6](-[#8-]):[#7]:[#6]2:[#7+](:[#6](:[#7](:[#6]:2:1)-[H])-[H])-[H])-[#6@](-[H])(-[H])-[H]', '[#8]=[#6]1:[#7](:[#6](=[#8]):[#7](:[#6]2:[#7](:[#6](:[#7]:[#6]:2:1)-[H])-[H])-[H])-[#6@](-[H])(-[H])-[H]', '[#8](-[#6]1:[#7](:[#6](=[#8]):[#7]:[#6]2:[#7]:[#6](:[#7](:[#6]:2:1)-[H])-[H])-[#6@](-[H])(-[H])-[H])-[H]', '[#8](-[#6]1:[#7](:[#6](-[#8]-[H]):[#7]:[#6]2:[#7]:[#6](:[#7]:[#6]:1-2)-[H])-[#6@](-[H])(-[H])-[H])-[H]']","['InChI=1S/C6H6N4O2/c1-10-5(11)3-4(8-2-7-3)9-6(10)12/h2,11H,1H3,(H,7,8,9,12)', 'InChI=1S/C6H6N4O2/c1-10-5(11)3-4(8-2-7-3)9-6(10)12/h2H,1H3,(H,7,8)(H,9,12)']","['UHSRRMDQAFLGNJ-UHFFFAOYSA-N', 'MVOYJPOZRLFTCP-UHFFFAOYSA-N']"
adenine_cation->neut,4.17,adenine,Lange's handbook of chemistry,"['[H]/N=c1\\nc([H])nc2[c-]1n([H])c([H])[n+]2[H]', '[H]/N=c1\\nc([H])n([H])c2c1nc([H])n2[H]', '[H]c1nc2c(N([H])[H])nc([H])n([H])c-2n1', '[H]/N=c1\\c2nc([H])n([H])c2nc([H])n1[H]', '[H]/N=c1/c2c(nc([H])n1[H])nc([H])n2[H]', '[H]c1nc(N([H])[H])c2c(n1)nc([H])n2[H]', '[H]/N=c1\\nc([H])n([H])c2nc([H])n([H])c12', '[H]c1nc2nc([H])n([H])c(N([H])[H])c-2n1', '[H]c1nc(N([H])[H])c2nc([H])n([H])c2n1']","['[#7]1(:[#6](:[#7](:[#6-]2:[#6](=[#7]/[H]):[#7]:[#6](:[#7]:[#6]:1:2)-[H])-[H])-[H])-[H]', '[#7]1(:[#6](:[#7]:[#6]2:[#6](=[#7]/[H]):[#7]:[#6](:[#7](:[#6]:1:2)-[H])-[H])-[H])-[H]', '[#7]1:[#6](:[#7]:[#6]2:[#6](-[#7](-[H])-[H]):[#7]:[#6](:[#7](:[#6]:1-2)-[H])-[H])-[H]', '[#7]1(:[#6](:[#7]:[#6]2:[#6](=[#7]\\[H]):[#7](:[#6](:[#7]:[#6]:1:2)-[H])-[H])-[H])-[H]', '[#7]1:[#6](:[#7](:[#6]2:[#6](=[#7]/[H]):[#7](:[#6](:[#7]:[#6]:1:2)-[H])-[H])-[H])-[H]', '[#7]1:[#6](:[#7](:[#6]2:[#6](-[#7](-[H])-[H]):[#7]:[#6](:[#7]:[#6]:1:2)-[H])-[H])-[H]', '[#7]1:[#6](:[#7](:[#6]2:[#6](=[#7]/[H]):[#7]:[#6](:[#7](:[#6]:1:2)-[H])-[H])-[H])-[H]', '[#7]1:[#6](:[#7]:[#6]2:[#6](-[#7](-[H])-[H]):[#7](:[#6](:[#7]:[#6]:1-2)-[H])-[H])-[H]', '[#7]1(:[#6](:[#7]:[#6]2:[#6](-[#7](-[H])-[H]):[#7]:[#6](:[#7]:[#6]:1:2)-[H])-[H])-[H]']","['InChI=1S/C5H4N5/c6-4-3-5(9-1-7-3)10-2-8-4/h1-2H,(H2,6,7,8,9,10)/q-1/p+1', 'InChI=1S/C5H5N5/c6-4-3-5(9-1-7-3)10-2-8-4/h1-2H,(H3,6,7,8,9,10)']","['BKNZZPDKTCXPCY-UHFFFAOYSA-O', 'GFFGJBXGBJISGV-UHFFFAOYSA-N']"
adenineNoxyde_cation->neut,2.69,adenine-n1-oxide,"D. D. Perrin. J. Am. Chem. Soc. 82, 5642 (1960).","['[H]c1nc2c(N([H])[H])n([O-])c([H])[n+]([H])c-2n1', '[H]/N=c1/c2c(nc([H])n2[H])[n+]([H])c([H])n1[O-]', '[H]c1nc2c(nc([H])n2[H])c(=[N+]([H])[H])n1[O-]', '[H]/N=c1/c2c(nc([H])n1[O-])[n+]([H])c([H])n2[H]', '[H]/N=C1\\C2=[N+]=C([H])N=C2N([H])[C-]([H])N1O[H]', '[H]/N=c1/c2c(nc([H])n1O[H])nc([H])n2[H]', '[H]On1c([H])nc2nc([H])nc-2c1N([H])[H]', '[H]/N=c1/c2nc([H])n([H])c2nc([H])n1O[H]', '[H]c1nc2nc([H])n([H])c2c(=[N+]([H])[H])n1[O-]']","['[#8]-[#7]1:[#6](-[#7](-[H])-[H]):[#6]2:[#7]:[#6](:[#7]:[#6]-2:[#7+](:[#6]:1-[H])-[H])-[H]', '[#8]-[#7]1:[#6](=[#7]\\[H]):[#6]2:[#7](:[#6](:[#7]:[#6]:2:[#7+](:[#6]:1-[H])-[H])-[H])-[H]', '[#8]-[#7]1:[#6](=[#7+](-[H])-[H]):[#6]2:[#7]:[#6](:[#7](:[#6]:2:[#7]:[#6]:1-[H])-[H])-[H]', '[#8]-[#7]1:[#6](=[#7]\\[H]):[#6]2:[#7](:[#6](:[#7+](:[#6]:2:[#7]:[#6]:1-[H])-[H])-[H])-[H]', '[#8](-[#7]1/[#6](=[#7]/[H])-[#6]2=[#7+]=[#6](-[#7]=[#6]-2-[#7](-[#6-]-1-[H])-[H])-[H])-[H]', '[#8](-[#7]1:[#6](=[#7]\\[H]):[#6]2:[#7](:[#6](:[#7]:[#6]:2:[#7]:[#6]:1-[H])-[H])-[H])-[H]', '[#8](-[#7]1:[#6](-[#7](-[H])-[H]):[#6]2:[#7]:[#6](:[#7]:[#6]-2:[#7]:[#6]:1-[H])-[H])-[H]', '[#8](-[#7]1:[#6](=[#7]\\[H]):[#6]2:[#7]:[#6](:[#7](:[#6]:2:[#7]:[#6]:1-[H])-[H])-[H])-[H]', '[#8]-[#7]1:[#6](=[#7+](-[H])-[H]):[#6]2:[#7](:[#6](:[#7]:[#6]:2:[#7]:[#6]:1-[H])-[H])-[H]']","['InChI=1S/C5H4N5O/c6-4-3-5(8-1-7-3)9-2-10(4)11/h1-2H,6H2/q-1/p+1', 'InChI=1S/C5H4N5O/c6-4-3-5(8-1-7-3)9-2-10(4)11/h1-2,6H,(H,7,8)/q-1/p+1/b6-4-', 'InChI=1S/C5H4N5O/c6-4-3-5(8-1-7-3)9-2-10(4)11/h1-2,6H,(H,7,8)/q-1/p+1', 'InChI=1S/C5H4N5O/c6-4-3-5(8-1-7-3)9-2-10(4)11/h1-2,6,11H/q-1/p+1/b6-4+', 'InChI=1S/C5H5N5O/c6-4-3-5(8-1-7-3)9-2-10(4)11/h1-2,6,11H,(H,7,8)/b6-4-', 'InChI=1S/C5H5N5O/c6-4-3-5(8-1-7-3)9-2-10(4)11/h1-2,11H,6H2']","['DCGYVHJIAWRONQ-UHFFFAOYSA-O', 'RPACZEHPTAHIKR-XQRVVYSFSA-O', 'RPACZEHPTAHIKR-UHFFFAOYSA-O', 'VFKYIUVFVXPKOE-GQCTYLIASA-O', 'PUJALHQKXFOENF-XQRVVYSFSA-N', 'FSEXIIUMRZGIDN-UHFFFAOYSA-N']"
allopurinol_neut->an,9.4,allopurinol,10.2165/00003088-200746080-00001,"['[H]Oc1nc([H])nc2nn([H])c([H])c12', '[H]c1c2c(=O)n([H])c([H])nc2nn1[H]', '[H]c1nnc2[n+]([H])c([H])n([H])c([O-])c1-2', '[H]Oc1nc([H])nc2c1c([H])nn2[H]', '[H]c1c2c(=O)nc([H])n([H])c2nn1[H]', '[H]c1nc2n([H])n([H])c([H])c-2c(=O)n1', '[H]c1nn([H])c2c1c(=O)nc([H])n2[H]', '[H]c1nn([H])c2nc([H])n([H])c(=O)c12', '[H]Oc1nc([H])n([H])c2nnc([H])c1-2']","['[#8](-[#6]1:[#7]:[#6](:[#7]:[#6]2:[#7]:[#7](:[#6](:[#6]:2:1)-[H])-[H])-[H])-[H]', '[#8]=[#6]1:[#7](:[#6](:[#7]:[#6]2:[#7]:[#7](:[#6](:[#6]:2:1)-[H])-[H])-[H])-[H]', '[#8]-[#6]1:[#7](:[#6](:[#7+](:[#6]2:[#7]:[#7]:[#6](:[#6]:1-2)-[H])-[H])-[H])-[H]', '[#8](-[#6]1:[#7]:[#6](:[#7]:[#6]2:[#7](:[#7]:[#6](:[#6]:2:1)-[H])-[H])-[H])-[H]', '[#8]=[#6]1:[#7]:[#6](:[#7](:[#6]2:[#7]:[#7](:[#6](:[#6]:2:1)-[H])-[H])-[H])-[H]', '[#8]=[#6]1:[#7]:[#6](:[#7]:[#6]2:[#7](:[#7](:[#6](:[#6]:1-2)-[H])-[H])-[H])-[H]', '[#8]=[#6]1:[#7]:[#6](:[#7](:[#6]2:[#7](:[#7]:[#6](:[#6]:2:1)-[H])-[H])-[H])-[H]', '[#8]=[#6]1:[#7](:[#6](:[#7]:[#6]2:[#7](:[#7]:[#6](:[#6]:2:1)-[H])-[H])-[H])-[H]', '[#8](-[#6]1:[#7]:[#6](:[#7](:[#6]2:[#7]:[#7]:[#6](:[#6]:1-2)-[H])-[H])-[H])-[H]']","['InChI=1S/C5H4N4O/c10-5-3-1-8-9-4(3)6-2-7-5/h1-2H,(H2,6,7,8,9,10)']",['OFCNXPDARWKPPY-UHFFFAOYSA-N']
guanine_cation->neut,3.3,guanine,Lange's handbook of chemistry,"['[H]/N=c1\\n([H])c2nc([H])nc-2c(O[H])n1[H]', '[H]/N=c1\\nc2nc([H])n([H])c2c(O[H])n1[H]', '[H]Oc1c2nc([H])nc-2nc(N([H])[H])n1[H]', '[H]/N=c1\\nc(O[H])c2nc([H])n([H])c2n1[H]', '[H]c1nc2c(=O)n([H])c(N([H])[H])nc2n1[H]', '[H]/N=c1\\n([H])c(=O)c2c(nc([H])n2[H])n1[H]', '[H]N([H])c1nc2[n+]([H])[c-][n+]([H])c-2c([O-])n1[H]', '[H]/N=c1\\nc2c(nc([H])n2[H])c(O[H])n1[H]', '[H]/N=c1\\nc2c(c([O-])n1[H])[n+]([H])c([H])n2[H]', '[H]c1nc2c([O-])nc([N+]([H])([H])[H])nc2n1[H]', '[H]c1n([H])c2nc(N([H])[H])nc([O-])c2[n+]1[H]', '[H]c1nc2c(=O)nc(N([H])[H])n([H])c2n1[H]', '[H]c1nc2nc([N+]([H])([H])[H])nc([O-])c2n1[H]', '[H]c1nc2nc(N([H])[H])n([H])c(=O)c2n1[H]', '[H]Oc1nc(N([H])[H])nc2nc([H])n([H])c12', '[H]c1nc2c([O-])n([H])c(N([H])[H])[n+]([H])c-2n1', '[H]c1nc2c(c(=O)nc(N([H])[H])n2[H])n1[H]', '[H]Oc1nc(N([H])[H])nc2c1nc([H])n2[H]', '[H]/N=c1\\nc([O-])c2c(n([H])c([H])[n+]2[H])n1[H]', '[H]/N=c1\\n([H])c(=O)c2nc([H])n([H])c2n1[H]', '[H]Oc1nc(N([H])[H])n([H])c2nc([H])nc1-2']","['[#7]1:[#6](:[#7]:[#6]2:[#6](-[#8]-[H]):[#7](:[#6](=[#7]/[H]):[#7](:[#6]:1-2)-[H])-[H])-[H]', '[#7]1:[#6](:[#7](:[#6]2:[#6](-[#8]-[H]):[#7](:[#6](=[#7]/[H]):[#7]:[#6]:1:2)-[H])-[H])-[H]', '[#7]1:[#6](:[#7]:[#6]2:[#6](-[#8]-[H]):[#7](:[#6](-[#7](-[H])-[H]):[#7]:[#6]:1-2)-[H])-[H]', '[#7]1(:[#6](:[#7]:[#6]2:[#6](-[#8]-[H]):[#7]:[#6](=[#7]\\[H]):[#7](:[#6]:1:2)-[H])-[H])-[H]', '[#7]1(:[#6](:[#7]:[#6]2:[#6](=[#8]):[#7](:[#6](-[#7](-[H])-[H]):[#7]:[#6]:1:2)-[H])-[H])-[H]', '[#7]1:[#6](:[#7](:[#6]2:[#6](=[#8]):[#7](:[#6](=[#7]\\[H]):[#7](:[#6]:1:2)-[H])-[H])-[H])-[H]', '[#7]1(:[#6-]:[#7+](:[#6]2:[#6](-[#8-]):[#7](:[#6](-[#7](-[H])-[H]):[#7]:[#6]:1-2)-[H])-[H])-[H]', '[#7]1(:[#6](:[#7]:[#6]2:[#6](-[#8]-[H]):[#7](:[#6](=[#7]/[H]):[#7]:[#6]:1:2)-[H])-[H])-[H]', '[#7]1(:[#6](:[#7+](:[#6]2:[#6](-[#8-]):[#7](:[#6](=[#7]/[H]):[#7]:[#6]:1:2)-[H])-[H])-[H])-[H]', '[#7]1(:[#6](:[#7]:[#6]2:[#6](-[#8-]):[#7]:[#6](-[#7@@+](-[H])(-[H])-[H]):[#7]:[#6]:1:2)-[H])-[H]', '[#7]1(:[#6](:[#7+](:[#6]2:[#6](-[#8-]):[#7]:[#6](-[#7](-[H])-[H]):[#7]:[#6]:1:2)-[H])-[H])-[H]', '[#7]1(:[#6](:[#7]:[#6]2:[#6](=[#8]):[#7]:[#6](-[#7](-[H])-[H]):[#7](:[#6]:1:2)-[H])-[H])-[H]', '[#7]1:[#6](:[#7](:[#6]2:[#6](-[#8-]):[#7]:[#6](-[#7@+](-[H])(-[H])-[H]):[#7]:[#6]:1:2)-[H])-[H]', '[#7]1:[#6](:[#7](:[#6]2:[#6](=[#8]):[#7](:[#6](-[#7](-[H])-[H]):[#7]:[#6]:1:2)-[H])-[H])-[H]', '[#7]1:[#6](:[#7](:[#6]2:[#6](-[#8]-[H]):[#7]:[#6](-[#7](-[H])-[H]):[#7]:[#6]:1:2)-[H])-[H]', '[#7]1:[#6](:[#7]:[#6]2:[#6](-[#8-]):[#7](:[#6](-[#7](-[H])-[H]):[#7+](:[#6]:1-2)-[H])-[H])-[H]', '[#7]1:[#6](:[#7](:[#6]2:[#6](=[#8]):[#7]:[#6](-[#7](-[H])-[H]):[#7](:[#6]:1:2)-[H])-[H])-[H]', '[#7]1(:[#6](:[#7]:[#6]2:[#6](-[#8]-[H]):[#7]:[#6](-[#7](-[H])-[H]):[#7]:[#6]:1:2)-[H])-[H]', '[#7]1(:[#6](:[#7+](:[#6]2:[#6](-[#8-]):[#7]:[#6](=[#7]\\[H]):[#7](:[#6]:1:2)-[H])-[H])-[H])-[H]', '[#7]1(:[#6](:[#7]:[#6]2:[#6](=[#8]):[#7](:[#6](=[#7]\\[H]):[#7](:[#6]:1:2)-[H])-[H])-[H])-[H]', '[#7]1:[#6](:[#7]:[#6]2:[#6](-[#8]-[H]):[#7]:[#6](-[#7](-[H])-[H]):[#7](:[#6]:1-2)-[H])-[H]']","['InChI=1S/C5H5N5O/c6-5-9-3-2(4(11)10-5)7-1-8-3/h1H,(H4,6,7,8,9,10,11)', 'InChI=1S/C5H5N5O/c6-5-9-3-2(4(11)10-5)7-1-8-3/h7-8H,(H3-,6,9,10,11)']","['UYTPUPDQBNUYGX-UHFFFAOYSA-N', 'DMRXHFZPKNFTDR-UHFFFAOYSA-N']"
isoguanine_cation->neut,4.5,isoguanine,10.1007/s00894-018-3892-4,"['[H]Oc1nc(N([H])[H])c2nc([H])nc-2n1[H]', '[H]c1nc2c(c(N([H])[H])nc(=O)n2[H])n1[H]', '[H]c1n([H])c2nc([O-])nc(N([H])[H])c2[n+]1[H]', '[H]c1nc2c(N([H])[H])nc(=O)n([H])c2n1[H]', '[H]Oc1nc(N([H])[H])c2nc([H])n([H])c2n1', '[H]c1nc2nc(=O)n([H])c(N([H])[H])c2n1[H]', '[H]Oc1nc(N([H])[H])c2c(n1)nc([H])n2[H]', '[H]Oc1nc2nc([H])nc-2c(N([H])[H])n1[H]', '[H]c1nc2c(N([H])[H])n([H])c(=O)nc2n1[H]', '[H]c1nc2c(N([H])[H])n([H])c(=O)n([H])c-2n1']","['[#7]1:[#6](:[#7]:[#6]2:[#6](:[#7]:[#6](:[#7](:[#6]:1-2)-[H])-[#8]-[H])-[#7](-[H])-[H])-[H]', '[#7]1:[#6](:[#7](:[#6]2:[#6](:[#7]:[#6](:[#7](:[#6]:1:2)-[H])=[#8])-[#7](-[H])-[H])-[H])-[H]', '[#7]1(:[#6](:[#7+](:[#6]2:[#6](:[#7]:[#6](:[#7]:[#6]:1:2)-[#8-])-[#7](-[H])-[H])-[H])-[H])-[H]', '[#7]1(:[#6](:[#7]:[#6]2:[#6](:[#7]:[#6](:[#7](:[#6]:1:2)-[H])=[#8])-[#7](-[H])-[H])-[H])-[H]', '[#7]1(:[#6](:[#7]:[#6]2:[#6](:[#7]:[#6](:[#7]:[#6]:1:2)-[#8]-[H])-[#7](-[H])-[H])-[H])-[H]', '[#7]1:[#6](:[#7](:[#6]2:[#6](:[#7](:[#6](:[#7]:[#6]:1:2)=[#8])-[H])-[#7](-[H])-[H])-[H])-[H]', '[#7]1:[#6](:[#7](:[#6]2:[#6](:[#7]:[#6](:[#7]:[#6]:1:2)-[#8]-[H])-[#7](-[H])-[H])-[H])-[H]', '[#7]1:[#6](:[#7]:[#6]2:[#6](:[#7](:[#6](:[#7]:[#6]:1-2)-[#8]-[H])-[H])-[#7](-[H])-[H])-[H]', '[#7]1(:[#6](:[#7]:[#6]2:[#6](:[#7](:[#6](:[#7]:[#6]:1:2)=[#8])-[H])-[#7](-[H])-[H])-[H])-[H]', '[#7]1:[#6](:[#7]:[#6]2:[#6](:[#7](:[#6](:[#7](:[#6]:1-2)-[H])=[#8])-[H])-[#7](-[H])-[H])-[H]']","['InChI=1S/C5H5N5O/c6-3-2-4(8-1-7-2)10-5(11)9-3/h1H,(H4,6,7,8,9,10,11)']",['DRAVOWXCEBXPTN-UHFFFAOYSA-N']
isoguanine_neut->an,9,isoguanine,10.1007/s00894-018-3892-4,"['[H]Oc1nc(N([H])[H])c2nc([H])nc-2n1[H]', '[H]c1nc2c(c(N([H])[H])nc(=O)n2[H])n1[H]', '[H]c1n([H])c2nc([O-])nc(N([H])[H])c2[n+]1[H]', '[H]c1nc2c(N([H])[H])nc(=O)n([H])c2n1[H]', '[H]Oc1nc(N([H])[H])c2nc([H])n([H])c2n1', '[H]c1nc2nc(=O)n([H])c(N([H])[H])c2n1[H]', '[H]Oc1nc(N([H])[H])c2c(n1)nc([H])n2[H]', '[H]Oc1nc2nc([H])nc-2c(N([H])[H])n1[H]', '[H]c1nc2c(N([H])[H])n([H])c(=O)nc2n1[H]', '[H]c1nc2c(N([H])[H])n([H])c(=O)n([H])c-2n1']","['[#7]1:[#6](:[#7]:[#6]2:[#6](:[#7]:[#6](:[#7](:[#6]:1-2)-[H])-[#8]-[H])-[#7](-[H])-[H])-[H]', '[#7]1:[#6](:[#7](:[#6]2:[#6](:[#7]:[#6](:[#7](:[#6]:1:2)-[H])=[#8])-[#7](-[H])-[H])-[H])-[H]', '[#7]1(:[#6](:[#7+](:[#6]2:[#6](:[#7]:[#6](:[#7]:[#6]:1:2)-[#8-])-[#7](-[H])-[H])-[H])-[H])-[H]', '[#7]1(:[#6](:[#7]:[#6]2:[#6](:[#7]:[#6](:[#7](:[#6]:1:2)-[H])=[#8])-[#7](-[H])-[H])-[H])-[H]', '[#7]1(:[#6](:[#7]:[#6]2:[#6](:[#7]:[#6](:[#7]:[#6]:1:2)-[#8]-[H])-[#7](-[H])-[H])-[H])-[H]', '[#7]1:[#6](:[#7](:[#6]2:[#6](:[#7](:[#6](:[#7]:[#6]:1:2)=[#8])-[H])-[#7](-[H])-[H])-[H])-[H]', '[#7]1:[#6](:[#7](:[#6]2:[#6](:[#7]:[#6](:[#7]:[#6]:1:2)-[#8]-[H])-[#7](-[H])-[H])-[H])-[H]', '[#7]1:[#6](:[#7]:[#6]2:[#6](:[#7](:[#6](:[#7]:[#6]:1-2)-[#8]-[H])-[H])-[#7](-[H])-[H])-[H]', '[#7]1(:[#6](:[#7]:[#6]2:[#6](:[#7](:[#6](:[#7]:[#6]:1:2)=[#8])-[H])-[#7](-[H])-[H])-[H])-[H]', '[#7]1:[#6](:[#7]:[#6]2:[#6](:[#7](:[#6](:[#7](:[#6]:1-2)-[H])=[#8])-[H])-[#7](-[H])-[H])-[H]']","['InChI=1S/C5H5N5O/c6-3-2-4(8-1-7-2)10-5(11)9-3/h1H,(H4,6,7,8,9,10,11)']",['DRAVOWXCEBXPTN-UHFFFAOYSA-N']
purine_cation->neut,2.52,purine,Lange's handbook of chemistry,"['[H]c1nc2c([H])nc([H])n([H])c-2n1', '[H]c1nc2nc([H])n([H])c([H])c-2n1', '[H]c1nc([H])c2c(n1)nc([H])n2[H]', '[H]c1nc([H])c2nc([H])n([H])c2n1']","['[#6]12-[#6](:[#6](:[#7]:[#6](:[#7]:1-[H])-[H])-[H]):[#7]:[#6](:[#7]:2)-[H]', '[#6]12-[#6](:[#6](:[#7](:[#6](:[#7]:1)-[H])-[H])-[H]):[#7]:[#6](:[#7]:2)-[H]', '[#6]12:[#6](:[#6](:[#7]:[#6](:[#7]:1)-[H])-[H]):[#7](:[#6](:[#7]:2)-[H])-[H]', '[#6]12:[#6](:[#6](:[#7]:[#6](:[#7]:1)-[H])-[H]):[#7]:[#6](:[#7]:2-[H])-[H]']","['InChI=1S/C5H4N4/c1-4-5(8-2-6-1)9-3-7-4/h1-3H,(H,6,7,8,9)']",['KDCGOANMDULRCW-UHFFFAOYSA-N']
2hydroxypyrazine_cation->neut,-0.1,2-hydroxypyrazine,doi.org/10.1039/JR9560001294,"['[H]c1nc([H])c(=O)n([H])c1[H]', '[H]c1nc([O-])c([H])[n+]([H])c1[H]', '[H]Oc1nc([H])c([H])nc1[H]']","['[#8]=[#6]1:[#7](:[#6](:[#6](:[#7]:[#6]:1-[H])-[H])-[H])-[H]', '[#8]-[#6]1:[#7]:[#6](:[#6](:[#7+](:[#6]:1-[H])-[H])-[H])-[H]', '[#8](-[#6]1:[#7]:[#6](:[#6](:[#7]:[#6]:1-[H])-[H])-[H])-[H]']","['InChI=1S/C4H4N2O/c7-4-3-5-1-2-6-4/h1-3H,(H,6,7)']",['HUTNOYOBQPAKIA-UHFFFAOYSA-N']
6chloro135triazaindene_cation->neut,2.7,"6-chloro-1h-imidazo[4,5-c]pyridine",doi.org/10.1039/J29660000285,"['[H]c1nc(Cl)c([H])c2c1nc([H])n2[H]', '[H]c1c(Cl)nc([H])c2c1nc([H])n2[H]', '[H]c1nc(Cl)c([H])[c-]2c1[n+]([H])[c-][n+]2[H]', '[H]c1nc2c([H])c(Cl)n([H])c([H])c-2n1']","['[#7]1(:[#6]2:[#6](:[#7]:[#6]:1-[H]):[#6](:[#7]:[#6](:[#6]:2-[H])-[#17])-[H])-[H]', '[#7]1:[#6]2:[#6](:[#7](:[#6]:1-[H])-[H]):[#6](:[#7]:[#6](:[#6]:2-[H])-[#17])-[H]', '[#7]1(:[#6-]2:[#6](:[#7+](:[#6-]:1)-[H]):[#6](:[#7]:[#6](:[#6]:2-[H])-[#17])-[H])-[H]', '[#7]1:[#6]2-[#6](:[#7]:[#6]:1-[H]):[#6](:[#7](:[#6](:[#6]:2-[H])-[#17])-[H])-[H]']","['InChI=1S/C6H4ClN3/c7-6-1-4-5(2-8-6)10-3-9-4/h1-3H,(H,9,10)', 'InChI=1S/C6H4ClN3/c7-6-1-4-5(2-8-6)10-3-9-4/h1-2,9-10H', 'InChI=1S/C6H4ClN3/c7-6-1-4-5(2-8-6)10-3-9-4/h1-3,8H']","['GDXABUJCXZZPBI-UHFFFAOYSA-N', 'ZRAZVVLYNKWDII-UHFFFAOYSA-N', 'HZOAYMGELKWQRO-UHFFFAOYSA-N']"
2methylthioquinoxaline_cation->neut,0.29,2-(methylthio)quinoxaline,"A. Albert and G. B. Barlin. J. Chem. Soc. 1962, 3129.",['[H]c1nc2c([H])c([H])c([H])c([H])c2nc1SC([H])([H])[H]'],['[#7]1:[#6]2:[#6](:[#7]:[#6](:[#6]:1-[#16]-[#6@@](-[H])(-[H])-[H])-[H]):[#6](:[#6](:[#6](:[#6]:2-[H])-[H])-[H])-[H]'],"['InChI=1S/C9H8N2S/c1-12-9-6-10-7-4-2-3-5-8(7)11-9/h2-6H,1H3']",['FOQUKZGBNFIUMZ-UHFFFAOYSA-N']
4hydroxypyrimidine_cation->neut,1.85,4-hydroxypyrimidine,doi.org/10.1039/JR9520003716,"['[H]Oc1nc([H])nc([H])c1[H]', '[H]c1c([H])n([H])c([H])nc1=O', '[H]c1nc([H])n([H])c(=O)c1[H]']","['[#6]1(:[#7]:[#6](:[#6](:[#6](:[#7]:1)-[#8]-[H])-[H])-[H])-[H]', '[#6]1(:[#7](:[#6](:[#6](:[#6](:[#7]:1)=[#8])-[H])-[H])-[H])-[H]', '[#6]1(:[#7]:[#6](:[#6](:[#6](:[#7]:1-[H])=[#8])-[H])-[H])-[H]']","['InChI=1S/C4H4N2O/c7-4-1-2-5-3-6-4/h1-3H,(H,5,6,7)']",['DNCYBUMDUBHIJZ-UHFFFAOYSA-N']
6chloro2methylthio135triazaindene_cation->neut,1.35,2-chloro-8-(methylthio)-9H-purine,doi.org/10.1039/J29660000285,"['[H]c1nc(Cl)c([H])c2c1nc(SC([H])([H])[H])n2[H]', '[H]c1c(Cl)nc([H])c2c1nc(SC([H])([H])[H])n2[H]', '[H]c1c2nc(SC([H])([H])[H])nc-2c([H])n([H])c1Cl']","['[#7]1(:[#6]2:[#6](:[#7]:[#6]:1-[#16]-[#6@@](-[H])(-[H])-[H]):[#6](:[#7]:[#6](:[#6]:2-[H])-[#17])-[H])-[H]', '[#7]1:[#6]2:[#6](:[#7](:[#6]:1-[#16]-[#6@@](-[H])(-[H])-[H])-[H]):[#6](:[#7]:[#6](:[#6]:2-[H])-[#17])-[H]', '[#7]1:[#6]2-[#6](:[#7]:[#6]:1-[#16]-[#6@@](-[H])(-[H])-[H]):[#6](:[#7](:[#6](:[#6]:2-[H])-[#17])-[H])-[H]']","['InChI=1S/C7H6ClN3S/c1-12-7-10-4-2-6(8)9-3-5(4)11-7/h2-3H,1H3,(H,10,11)', 'InChI=1S/C7H6ClN3S/c1-12-7-10-4-2-6(8)9-3-5(4)11-7/h2-3,9H,1H3']","['GDSCGHPQBBLLDA-UHFFFAOYSA-N', 'GUEWANVSUDSGLD-UHFFFAOYSA-N']"
6chloro2methylthio135triazaindene_neut->an,8.75,2-chloro-8-(methylthio)-9H-purine,doi.org/10.1039/J29660000285,"['[H]c1nc(Cl)c([H])c2c1nc(SC([H])([H])[H])n2[H]', '[H]c1c(Cl)nc([H])c2c1nc(SC([H])([H])[H])n2[H]', '[H]c1c2nc(SC([H])([H])[H])nc-2c([H])n([H])c1Cl']","['[#7]1(:[#6]2:[#6](:[#7]:[#6]:1-[#16]-[#6@@](-[H])(-[H])-[H]):[#6](:[#7]:[#6](:[#6]:2-[H])-[#17])-[H])-[H]', '[#7]1:[#6]2:[#6](:[#7](:[#6]:1-[#16]-[#6@@](-[H])(-[H])-[H])-[H]):[#6](:[#7]:[#6](:[#6]:2-[H])-[#17])-[H]', '[#7]1:[#6]2-[#6](:[#7]:[#6]:1-[#16]-[#6@@](-[H])(-[H])-[H]):[#6](:[#7](:[#6](:[#6]:2-[H])-[#17])-[H])-[H]']","['InChI=1S/C7H6ClN3S/c1-12-7-10-4-2-6(8)9-3-5(4)11-7/h2-3H,1H3,(H,10,11)', 'InChI=1S/C7H6ClN3S/c1-12-7-10-4-2-6(8)9-3-5(4)11-7/h2-3,9H,1H3']","['GDSCGHPQBBLLDA-UHFFFAOYSA-N', 'GUEWANVSUDSGLD-UHFFFAOYSA-N']"
2methylthio135triazaindene_cation->neut,5.98,"2-(methylthio)-1H-imidazo[4,5-c]pyridine",doi.org/10.1039/J29660000285,"['[H]c1c2nc(SC([H])([H])[H])nc-2c([H])n([H])c1[H]', '[H]c1nc([H])c2c(nc(SC([H])([H])[H])n2[H])c1[H]', '[H]c1nc([H])c2nc(SC([H])([H])[H])n([H])c2c1[H]']","['[#7]1:[#6]2-[#6](:[#7]:[#6]:1-[#16]-[#6@@](-[H])(-[H])-[H]):[#6](:[#7](:[#6](:[#6]:2-[H])-[H])-[H])-[H]', '[#7]1:[#6]2:[#6](:[#7](:[#6]:1-[#16]-[#6@@](-[H])(-[H])-[H])-[H]):[#6](:[#7]:[#6](:[#6]:2-[H])-[H])-[H]', '[#7]1(:[#6]2:[#6](:[#7]:[#6]:1-[#16]-[#6@@](-[H])(-[H])-[H]):[#6](:[#7]:[#6](:[#6]:2-[H])-[H])-[H])-[H]']","['InChI=1S/C7H7N3S/c1-11-7-9-5-2-3-8-4-6(5)10-7/h2-4,8H,1H3', 'InChI=1S/C7H7N3S/c1-11-7-9-5-2-3-8-4-6(5)10-7/h2-4H,1H3,(H,9,10)']","['MHTXUXQPKGLIEB-UHFFFAOYSA-N', 'XTDRPJHTQUWBSM-UHFFFAOYSA-N']"