compn,pKa,correct name,reference,smiles,smarts,inchi,inchiKey
2aza6helicene_cation->neut,5.28,1-aza[6]helicene,https://www.ncbi.nlm.nih.gov/pmc/articles/PMC2065686/,['[H]c1nc([H])c2c(c1[H])c([H])c([H])c1c([H])c([H])c3c([H])c([H])c4c([H])c([H])c5c([H])c([H])c([H])c([H])c5c4c3c12'],['[#7]1:[#6](:[#6]2:[#6]3:[#6]4:[#6]5:[#6](:[#6](:[#6](:[#6]:4:[#6](:[#6](:[#6]:3:[#6](:[#6](:[#6]:2:[#6](:[#6]:1-[H])-[H])-[H])-[H])-[H])-[H])-[H])-[H]):[#6](:[#6](:[#6]1:[#6]:5:[#6](:[#6](:[#6](:[#6]:1-[H])-[H])-[H])-[H])-[H])-[H])-[H]'],['InChI=1S/C25H15N/c1-2-4-21-16(3-1)5-7-18-9-11-20-12-10-19-8-6-17-13-14-26-15-22(17)24(19)25(20)23(18)21/h1-15H'],['FXLQAGDEUKTEBW-UHFFFAOYSA-N']
24thiazolidinedione_neut->an,6.24,"2,4-thiazolidinenione",doi.org/10.1080/10426509808029667,['[H]N1C(=O)C([H])([H])[S+]=C1[O-]'],['[#16]1-[#6@](-[#6](=[#8])-[#7](-[#6]=1-[#8-])-[H])(-[H])-[H]'],"['InChI=1S/C3H3NO2S/c5-2-1-7-3(6)4-2/h1H2,(H-,4,5,6)']",['SCKLCTCUIFZHQR-UHFFFAOYSA-N']
2thioxothiazolidin4one_neut->an,6.9,2-thioxothiazolidin-4-one,doi.org/10.1080/10426509808029667,['[H]N1C(=O)C([H])([H])SC1=S'],['[#16]1-[#6@](-[#6](=[#8])-[#7](-[#6]-1=[#16])-[H])(-[H])-[H]'],"['InChI=1S/C3H3NOS2/c5-2-1-7-3(6)4-2/h1H2,(H,4,5,6)']",['KIWUVOGUEXMXSV-UHFFFAOYSA-N']
5azadihydrouracil_neut->an,10.7,5-azadihydrouracil,doi.org/10.1135/cccc19620716,['[H]N1C(=O)N([H])C([H])([H])N([H])C1=O'],['[#8]=[#6]1-[#7](-[#6@@](-[#7](-[#6](=[#8])-[#7]-1-[H])-[H])(-[H])-[H])-[H]'],"['InChI=1S/C3H5N3O2/c7-2-4-1-5-3(8)6-2/h1H2,(H3,4,5,6,7,8)']",['YTFXKURWTLWPKK-UHFFFAOYSA-N']
1methyl56dinitrobenzimidazole_cation->neut,1.6,"1-methyl-5,6-dinitrobenzimidazole",https://doi.org/10.1016/S0960-894X(98)00082-1,['[H]c1c([N+](=O)[O-])c([N+](=O)[O-])c([H])c2c1nc([H])n2C([H])([H])[H]'],['[#8]=[#7+](-[#8-])-[#6]1:[#6](:[#6]2:[#7](:[#6](:[#7]:[#6]:2:[#6](:[#6]:1-[#7+](=[#8])-[#8-])-[H])-[H])-[#6@@](-[H])(-[H])-[H])-[H]'],"['InChI=1S/C8H6N4O4/c1-10-4-9-5-2-7(11(13)14)8(12(15)16)3-6(5)10/h2-4H,1H3']",['PEFKYZOKXRUFRY-UHFFFAOYSA-N']
aziridine_cation->neut,8.04,aziridine,doi.org/10.1021/ja01600a029,['[H]N1C([H])([H])C1([H])[H]'],['[H]-[#6@]1(-[#6@@](-[H])(-[#7]-1-[H])-[H])-[H]'],"['InChI=1S/C2H5N/c1-2-3-1/h3H,1-2H2']",['NOWKCMXCCJGMRR-UHFFFAOYSA-N']
1methylaziridine_cation->neut,8.5,1-methyl-aziridine,doi.org/10.1021/ja01600a029,['[H]N1C([H])([H])[C@@]1([H])C([H])([H])[H]'],['[H]-[#6@]1(-[#6@@](-[#7]-1-[H])(-[H])-[#6@@](-[H])(-[H])-[H])-[H]'],"['InChI=1S/C3H7N/c1-3-2-4-3/h3-4H,2H2,1H3/t3-/m1/s1']",['OZDGMOYKSFPLSE-GSVOUGTGSA-N']
11dimethylaziridine_cation->neut,8.61,"1,1-dimethyl-aziridine",doi.org/10.1021/ja01600a029,['[H]N1C([H])([H])C1(C([H])([H])[H])C([H])([H])[H]'],['[H]-[#6@]1(-[#6@](-[#7]-1-[H])(-[#6@@](-[H])(-[H])-[H])-[#6@@](-[H])(-[H])-[H])-[H]'],"['InChI=1S/C4H9N/c1-4(2)3-5-4/h5H,3H2,1-2H3']",['FGRJGEWVJCCOJJ-UHFFFAOYSA-N']
12dimethylaziridine_cation->neut,8.69,"1,2-trans-dimethyl-aziridine",doi.org/10.1021/ja01600a029,['[H]N1[C@]([H])(C([H])([H])[H])[C@@]1([H])C([H])([H])[H]'],['[H]-[#6@]1(-[#6@@](-[#7]-1-[H])(-[H])-[#6@@](-[H])(-[H])-[H])-[#6@@](-[H])(-[H])-[H]'],"['InChI=1S/C4H9N/c1-3-4(2)5-3/h3-5H,1-2H3/t3-,4-/m1/s1']",['DNPSMEGHIHDFAJ-QWWZWVQMSA-N']
12cisdimethylaziridine_cation->neut,8.72,"1,2-cis-dimethyl-aziridine",doi.org/10.1021/ja01600a029,['[H]N1[C@@]([H])(C([H])([H])[H])[C@@]1([H])C([H])([H])[H]'],['[H]-[#6@@]1(-[#6@@](-[#7]-1-[H])(-[H])-[#6@@](-[H])(-[H])-[H])-[#6@@](-[H])(-[H])-[H]'],"['InChI=1S/C4H9N/c1-3-4(2)5-3/h3-5H,1-2H3/t3-,4+']",['DNPSMEGHIHDFAJ-ZXZARUISSA-N']
thiazolidine_cation->neut,6.2,thiazolidine,pubs.rsc.org/en/content/articlelanding/2001/p2/b105082f,['[H]N1C([H])([H])SC([H])([H])C1([H])[H]'],['[#16]1-[#6@](-[#6@@](-[#7](-[#6@@]-1(-[H])-[H])-[H])(-[H])-[H])(-[H])-[H]'],"['InChI=1S/C3H7NS/c1-2-5-3-4-1/h4H,1-3H2']",['OGYGFUAIIOPWQD-UHFFFAOYSA-N']
hexamethylenetetramine_cation->neut,6.3,hexamethylenetetramine,"R. Pummerer and J. Hofmann. Ber. 56, 1255 (1923).",['[H]C1([H])N2C([H])([H])N3C([H])([H])N1C([H])([H])N(C2([H])[H])C3([H])[H]'],['[#7]12-[#6@@](-[#7]3-[#6@](-[#7](-[#6@@]-1(-[H])-[H])-[#6@@](-[#7](-[#6@@]-2(-[H])-[H])-[#6@@]-3(-[H])-[H])(-[H])-[H])(-[H])-[H])(-[H])-[H]'],['InChI=1S/C6H12N4/c1-7-2-9-4-8(1)5-10(3-7)6-9/h1-6H2'],['VKYKSIONXSXAKP-UHFFFAOYSA-N']
cyclopenta25dien12dcarbonitrile_neut->an,1.11,"cyclopenta-2,5-diene-1,2-dicarbonitrile",doi.org/10.1021/ja00965a028,"['[H]C1=C(C#N)C(C#N)=C([H])C1([H])[H]', '[H]C1=C([H])[C@@]([H])(C#N)C(C#N)=C1[H]', '[H]C1=C([H])C([H])([H])C(C#N)=C1C#N']","['[#7]#[#6]-[#6]1=[#6](-[#6@@](-[#6](=[#6]-1-[#6]#[#7])-[H])(-[H])-[H])-[H]', '[#7]#[#6]-[#6@@]1(-[#6](=[#6](-[#6](=[#6]-1-[#6]#[#7])-[H])-[H])-[H])-[H]', '[#7]#[#6]-[#6]1-[#6@@](-[#6](=[#6](-[#6]=1-[#6]#[#7])-[H])-[H])(-[H])-[H]']","['InChI=1S/C7H4N2/c8-4-6-2-1-3-7(6)5-9/h2-3H,1H2', 'InChI=1S/C7H4N2/c8-4-6-2-1-3-7(6)5-9/h1-3,6H/t6-/m0/s1', 'InChI=1S/C7H4N2/c8-4-6-2-1-3-7(6)5-9/h1-2H,3H2']","['HRUSBFHYDNGSFQ-UHFFFAOYSA-N', 'JIHNZNMQITWYMZ-LURJTMIESA-N', 'FAMRLSBVZVLPMA-UHFFFAOYSA-N']"
cyclopenta25dien25dcarbonitrile_neut->an,2.52,"cyclopenta-2,5-diene-2,5-dicarbonitrile",doi.org/10.1021/ja00965a028,"['[H]C1=C([H])[C@]([H])(C#N)C([H])=C1C#N', '[H]C1=C(C#N)C([H])([H])C([H])=C1C#N', '[H]C1=C(C#N)C([H])([H])C(C#N)=C1[H]']","['[#6]1(-[#6@](-[#6](=[#6](-[#6]=1-[#6]#[#7])-[H])-[H])(-[#6]#[#7])-[H])-[H]', '[#6]1(=[#6](-[#6](=[#6](-[#6@@]-1(-[H])-[H])-[H])-[#6]#[#7])-[H])-[#6]#[#7]', '[#6]1(-[#6@@](-[#6](=[#6](-[#6]=1-[H])-[H])-[#6]#[#7])(-[H])-[H])-[#6]#[#7]']","['InChI=1S/C7H4N2/c8-4-6-1-2-7(3-6)5-9/h1-3,6H/t6-/m0/s1', 'InChI=1S/C7H4N2/c8-4-6-1-2-7(3-6)5-9/h1,3H,2H2', 'InChI=1S/C7H4N2/c8-4-6-1-2-7(3-6)5-9/h1-2H,3H2']","['VAHDULJCCPKNPM-LURJTMIESA-N', 'VEPRCMDQUCNDKY-UHFFFAOYSA-N', 'RSBQIVSNJYIHQG-UHFFFAOYSA-N']"
2phenylmalononitrile_neut->an,5.8,2-phenyl-malononitrile,doi.org/10.1021/ja01065a014,['[H]c1c([H])c([H])c(C([H])(C#N)C#N)c([H])c1[H]'],['[#7]#[#6]-[#6@@](-[#6]1:[#6](:[#6](:[#6](:[#6](:[#6]:1-[H])-[H])-[H])-[H])-[H])(-[#6]#[#7])-[H]'],"['InChI=1S/C9H6N2/c10-6-9(7-11)8-4-2-1-3-5-8/h1-5,9H']",['OFCTVAYVCDCQDA-UHFFFAOYSA-N']
2bromomalononitrile_neut->an,5,6-bromo-malononitrile ,doi.org/10.1021/ja01106a048,['[H]C(Br)(C#N)C#N'],['[#7]#[#6]-[#6@@](-[#6]#[#7])(-[H])-[#35]'],['InChI=1S/C3HBrN2/c4-3(1-5)2-6/h3H'],['SFRZRFWPESUWKP-UHFFFAOYSA-N']
malononitrile_neut->an,11.19,malononitrile ,10.1021/ja01106a048,['[H]C([H])(C#N)C#N'],['[#7]#[#6]-[#6@@](-[#6]#[#7])(-[H])-[H]'],['InChI=1S/C3H2N2/c4-2-1-3-5/h1H2'],['CUONGYYJJVDODC-UHFFFAOYSA-N']
trimethylaminenoxyde_cation->neut,4.64,trimethylamine-N-oxyde,https://doi.org/10.1016/j.aca.2006.11.036,['[H]C([H])([H])[N+]([O-])(C([H])([H])[H])C([H])([H])[H]'],['[H]-[#6@](-[H])(-[H])-[#7@+](-[#6@@](-[H])(-[H])-[H])(-[#6@@](-[H])(-[H])-[H])-[#8-]'],"['InChI=1S/C3H9NO/c1-4(2,3)5/h1-3H3']",['UYPYRKYUKCHHIB-UHFFFAOYSA-N']
fluoronitromethane_neut->an,9.55,fluoronitromethane,https://link.springer.com/article/10.1007/BF00925284,['[H]C([H])(F)[N+](=O)[O-]'],['[H]-[#6@](-[H])(-[#7+](=[#8])-[#8-])-[#9]'],['InChI=1S/CH2FNO2/c2-1-3(4)5/h1H2'],['RAKXKOSFSGNFHY-UHFFFAOYSA-N']
chloronitromethane_neut->an,7.2,chloronitromethane,"J. Am. Chem. Soc.1966, 88, 5, 947949",['[H]C([H])(Cl)[N+](=O)[O-]'],['[H]-[#6@](-[H])(-[#7+](=[#8])-[#8-])-[#17]'],['InChI=1S/CH2ClNO2/c2-1-3(4)5/h1H2'],['CGKPGVZMSKVVOF-UHFFFAOYSA-N']
45benzotropolone_neut->an,10,"4,5-benzotropolone",doi.org/10.1021/ja01125a028,"['[H]Oc1c([H])c2c([H])c([H])c([H])c([H])c2c([H])c([H])c1=O', '[H]Oc1c([H])c([H])c2c([H])c([H])c([H])c([H])c2c([H])c1=O']","['[#8]=[#6]1:[#6](-[#8]-[H]):[#6](:[#6]2:[#6](:[#6](:[#6]:1-[H])-[H]):[#6](:[#6](:[#6](:[#6]:2-[H])-[H])-[H])-[H])-[H]', '[#8](-[#6]1:[#6](=[#8]):[#6](:[#6]2:[#6](:[#6](:[#6]:1-[H])-[H]):[#6](:[#6](:[#6](:[#6]:2-[H])-[H])-[H])-[H])-[H])-[H]']","['InChI=1S/C11H8O2/c12-10-6-5-8-3-1-2-4-9(8)7-11(10)13/h1-7H,(H,12,13)']",['QNVQFWMESMXFLQ-UHFFFAOYSA-N']
12diazepine12dimethylhexahydro_cation->neut,6.66,"1H-1,2-Diazepine, hexahydro-1,2-dimethyl-",doi.org/10.1021/ja00227a004,['[H]C([H])([H])N1N(C([H])([H])[H])C([H])([H])C([H])([H])C([H])([H])C([H])([H])C1([H])[H]'],['[#7]1(-[#7](-[#6@](-[#6@](-[#6@](-[#6@@](-[#6@@]-1(-[H])-[H])(-[H])-[H])(-[H])-[H])(-[H])-[H])(-[H])-[H])-[#6@](-[H])(-[H])-[H])-[#6@](-[H])(-[H])-[H]'],"['InChI=1S/C7H16N2/c1-8-6-4-3-5-7-9(8)2/h3-7H2,1-2H3']",['HETZZQBBTGYZHG-UHFFFAOYSA-N']
tetramethylhydrazine_cation->neut,6.18,"N,N,N',N' tetramethylhydrazine",doi.org/10.1021/ja00227a004,['[H]C([H])([H])N(N(C([H])([H])[H])C([H])([H])[H])C([H])([H])[H]'],['[#7](-[#7](-[#6@@](-[H])(-[H])-[H])-[#6@@](-[H])(-[H])-[H])(-[#6@@](-[H])(-[H])-[H])-[#6@@](-[H])(-[H])-[H]'],['InChI=1S/C4H12N2/c1-5(2)6(3)4/h1-4H3'],['DHBZRQXIRAEMRO-UHFFFAOYSA-N']
NNpbipyrrolidine_cation->neut,7.16,"N,N'-bipyrrolidine",doi.org/10.1021/ja00227a004,['[H]C1([H])N(N2C([H])([H])C([H])([H])C([H])([H])C2([H])[H])C([H])([H])C([H])([H])C1([H])[H]'],['[#7]1(-[#7]2-[#6@](-[#6@](-[#6@@](-[#6@@]-2(-[H])-[H])(-[H])-[H])(-[H])-[H])(-[H])-[H])-[#6@](-[#6@](-[#6@@](-[#6@@]-1(-[H])-[H])(-[H])-[H])(-[H])-[H])(-[H])-[H]'],['InChI=1S/C8H16N2/c1-2-6-9(5-1)10-7-3-4-8-10/h1-8H2'],['QGRRJTQMMXJUNP-UHFFFAOYSA-N']
NNpbipiridine_cation->neut,7.09,"N,N'-bipiridine",doi.org/10.1021/ja00227a004,['[H]C1([H])N(N2C([H])([H])C([H])([H])C([H])([H])C([H])([H])C2([H])[H])C([H])([H])C([H])([H])C([H])([H])C1([H])[H]'],['[#7]1(-[#7]2-[#6@](-[#6@](-[#6@@](-[#6@@](-[#6@@]-2(-[H])-[H])(-[H])-[H])(-[H])-[H])(-[H])-[H])(-[H])-[H])-[#6@](-[#6@](-[#6@@](-[#6@@](-[#6@@]-1(-[H])-[H])(-[H])-[H])(-[H])-[H])(-[H])-[H])(-[H])-[H]'],['InChI=1S/C10H20N2/c1-3-7-11(8-4-1)12-9-5-2-6-10-12/h1-10H2'],['QFDISQIDKZUABE-UHFFFAOYSA-N']
nmethylhydrazine_cation->neut,7.85,N-methyl-hydrazine,doi.org/10.1039/P29740001112,['[H]N([H])N([H])C([H])([H])[H]'],['[#7](-[#7](-[H])-[H])(-[#6@@](-[H])(-[H])-[H])-[H]'],"['InChI=1S/CH6N2/c1-3-2/h3H,2H2,1H3']",['HDZGCSFEDULWCS-UHFFFAOYSA-N']
nndimethylhydrazine_cation->neut,7.12,"N,N-dimethylhydrazine",doi.org/10.1039/P29740001112,['[H]N([H])N(C([H])([H])[H])C([H])([H])[H]'],['[#7](-[#7](-[H])-[H])(-[#6@@](-[H])(-[H])-[H])-[#6@@](-[H])(-[H])-[H]'],"['InChI=1S/C2H8N2/c1-4(2)3/h3H2,1-2H3']",['RHUYHJGZWVXEHW-UHFFFAOYSA-N']
nnnptrimethylhydrazine_cation->neut,6.58,"N,N,N'-trimethylhydrazine",doi.org/10.1039/P29740001112,['[H]N(N(C([H])([H])[H])C([H])([H])[H])C([H])([H])[H]'],['[#7](-[#7](-[#6@@](-[H])(-[H])-[H])-[H])(-[#6@@](-[H])(-[H])-[H])-[#6@@](-[H])(-[H])-[H]'],"['InChI=1S/C3H10N2/c1-4-5(2)3/h4H,1-3H3']",['NIIPNAJXERMYOG-UHFFFAOYSA-N']
dimethylhydrazine_cation->neut,7.49,"N,N' dimethylhydrazine",doi.org/10.1039/P29740001112,['[H]N(N([H])C([H])([H])[H])C([H])([H])[H]'],['[#7](-[#7](-[#6@@](-[H])(-[H])-[H])-[H])(-[#6@@](-[H])(-[H])-[H])-[H]'],"['InChI=1S/C2H8N2/c1-3-4-2/h3-4H,1-2H3']",['DIIIISSCIXVANO-UHFFFAOYSA-N']
isopropylhidrazine_cation->neut,7.6,isopropyl-hidrazine,doi.org/10.1021/jm01239a006,"['[H]C([H])([H])C([H])([N-][N+]([H])([H])[H])C([H])([H])[H]', '[H]N([H])N([H])C([H])(C([H])([H])[H])C([H])([H])[H]']","['[H]-[#6@@](-[#6@@](-[H])(-[H])-[H])(-[#6@@](-[H])(-[H])-[H])-[#7-]-[#7@@+](-[H])(-[H])-[H]', '[H]-[#6@@](-[#6@@](-[H])(-[H])-[H])(-[#6@@](-[H])(-[H])-[H])-[#7](-[#7](-[H])-[H])-[H]']","['InChI=1S/C3H10N2/c1-3(2)5-4/h3H,1-2,4H3', 'InChI=1S/C3H10N2/c1-3(2)5-4/h3,5H,4H2,1-2H3']","['NNUYFKINSHWHHC-UHFFFAOYSA-N', 'KJAQRHMKLVGSCG-UHFFFAOYSA-N']"
pyrrolidin1amine_cation->neut,7.75,pyrrolidin-1-amine,https://doi.org/10.1016/0022-1902(70)80075-6,['[H]N([H])N1C([H])([H])C([H])([H])C([H])([H])C1([H])[H]'],['[H]-[#6@]1(-[#6@](-[#6@@](-[#6@@](-[H])(-[H])-[#7]-1-[#7](-[H])-[H])(-[H])-[H])(-[H])-[H])-[H]'],['InChI=1S/C4H10N2/c5-6-3-1-2-4-6/h1-5H2'],['SBMSLRMNBSMKQC-UHFFFAOYSA-N']
piperidine1amine_cation->neut,7.51,piperidine-1-amine,https://doi.org/10.1016/0022-1902(70)80075-6,['[H]N([H])N1C([H])([H])C([H])([H])C([H])([H])C([H])([H])C1([H])[H]'],['[H]-[#6@]1(-[#6@@](-[#6@](-[#6@](-[#6@](-[H])(-[H])-[#7]-1-[#7](-[H])-[H])(-[H])-[H])(-[H])-[H])(-[H])-[H])-[H]'],['InChI=1S/C5H12N2/c6-7-4-2-1-3-5-7/h1-6H2'],['LWMPFIOTEAXAGV-UHFFFAOYSA-N']
1aminohomopiperidine_cation->neut,7.92,1-amino-homopiperidine-1-amine,https://doi.org/10.1016/0022-1902(70)80075-6,['[H]N([H])N1C([H])([H])C([H])([H])C([H])([H])C([H])([H])C([H])([H])C1([H])[H]'],['[#7]1(-[#7](-[H])-[H])-[#6@](-[#6@](-[#6@](-[#6@@](-[#6@@](-[#6@@]-1(-[H])-[H])(-[H])-[H])(-[H])-[H])(-[H])-[H])(-[H])-[H])(-[H])-[H]'],['InChI=1S/C6H14N2/c7-8-5-3-1-2-4-6-8/h1-7H2'],['UGBKOURNNQREPE-UHFFFAOYSA-N']
tolylhydrazine_cation->neut,5.32,4-methylphenyl-hydrazine,doi.org/10.1039/JR9640004053,['[H]c1c([H])c(C([H])([H])[H])c([H])c([H])c1N([H])N([H])[H]'],['[#7](-[#7](-[H])-[H])(-[#6]1:[#6](:[#6](:[#6](:[#6](:[#6]:1-[H])-[H])-[#6@@](-[H])(-[H])-[H])-[H])-[H])-[H]'],"['InChI=1S/C7H10N2/c1-6-2-4-7(9-8)5-3-6/h2-5,9H,8H2,1H3']",['XAMBIJWZVIZZOG-UHFFFAOYSA-N']
4hydrazinebenzonitrile_cation->neut,4.25,4-hydrazinebenzonitrile,doi.org/10.1039/JR9640004053,['[H]c1c([H])c(N([H])N([H])[H])c([H])c([H])c1C#N'],['[#7](-[#7](-[H])-[H])(-[#6]1:[#6](:[#6](:[#6](:[#6](:[#6]:1-[H])-[H])-[#6]#[#7])-[H])-[H])-[H]'],"['InChI=1S/C7H7N3/c8-5-6-1-3-7(10-9)4-2-6/h1-4,10H,9H2']",['DZUUSHCOMPROCJ-UHFFFAOYSA-N']
4chlorophenyhydrazine_cation->neut,4.96,4-chlorophenyl hydrazine,doi.org/10.1039/J29670001233,['[H]c1c([H])c(N([H])N([H])[H])c([H])c([H])c1Cl'],['[#7](-[#7](-[H])-[H])(-[#6]1:[#6](:[#6](:[#6](:[#6](:[#6]:1-[H])-[H])-[#17])-[H])-[H])-[H]'],"['InChI=1S/C6H7ClN2/c7-5-1-3-6(9-8)4-2-5/h1-4,9H,8H2']",['XXNOGQJZAOXWAQ-UHFFFAOYSA-N']
4nitrophenyhydrazine_cation->neut,3.7,4-nitrophenyl-hydrazine,doi.org/10.1039/J29670001233,['[H]c1c([H])c([N+](=O)[O-])c([H])c([H])c1N([H])N([H])[H]'],['[#7](-[#7](-[H])-[H])(-[#6]1:[#6](:[#6](:[#6](:[#6](:[#6]:1-[H])-[H])-[#7+](=[#8])-[#8-])-[H])-[H])-[H]'],"['InChI=1S/C6H7N3O2/c7-8-5-1-3-6(4-2-5)9(10)11/h1-4,8H,7H2']",['KMVPXBDOWDXXEN-UHFFFAOYSA-N']
4bromophenyhydrazine_cation->neut,5.05,4-bromophenyl-hydrazine,doi.org/10.1039/J29670001233,['[H]c1c([H])c(N([H])N([H])[H])c([H])c([H])c1Br'],['[#7](-[#7](-[H])-[H])(-[#6]1:[#6](:[#6](:[#6](:[#6](:[#6]:1-[H])-[H])-[#35])-[H])-[H])-[H]'],"['InChI=1S/C6H7BrN2/c7-5-1-3-6(9-8)4-2-5/h1-4,9H,8H2']",['NRESDXFFSNBDGP-UHFFFAOYSA-N']
3methylphenylhydrazine_cation->neut,5.26,3-methylphenyl-hydrazine,doi.org/10.1039/JR9640004053,['[H]c1c([H])c(N([H])N([H])[H])c([H])c(C([H])([H])[H])c1[H]'],['[#7](-[#7](-[H])-[H])(-[#6]1:[#6](:[#6](:[#6](:[#6](:[#6]:1-[H])-[#6@@](-[H])(-[H])-[H])-[H])-[H])-[H])-[H]'],"['InChI=1S/C7H10N2/c1-6-3-2-4-7(5-6)9-8/h2-5,9H,8H2,1H3']",['GPTOGZLZMLJZCV-UHFFFAOYSA-N']
2methylphenylhydrazine_cation->neut,5.32,2-methylphenyl-hydrazine,doi.org/10.1002/cber.19630960121,['[H]c1c([H])c([H])c(C([H])([H])[H])c(N([H])N([H])[H])c1[H]'],['[#7](-[#7](-[H])-[H])(-[#6]1:[#6](:[#6](:[#6](:[#6](:[#6]:1-[H])-[H])-[H])-[H])-[#6@@](-[H])(-[H])-[H])-[H]'],"['InChI=1S/C7H10N2/c1-6-4-2-3-5-7(6)9-8/h2-5,9H,8H2,1H3']",['SCZGZDLUGUYLRV-UHFFFAOYSA-N']
3hydrazinebenzonitrile_cation->neut,5.57,3-hydrazinebenzonitrile,doi.org/10.1039/JR9640004053,['[H]c1c([H])c(C#N)c([H])c(N([H])N([H])[H])c1[H]'],['[#7](-[#7](-[H])-[H])(-[#6]1:[#6](:[#6](:[#6](:[#6](:[#6]:1-[H])-[H])-[H])-[#6]#[#7])-[H])-[H]'],"['InChI=1S/C7H7N3/c8-5-6-2-1-3-7(4-6)10-9/h1-4,10H,9H2']",['SBOSIWQIJOMACM-UHFFFAOYSA-N']
3methoxyphenylhydrazine_cation->neut,5.3,3-methoxylphenyl-hydrazine,doi.org/10.1002/cber.19630960121,['[H]c1c([H])c(OC([H])([H])[H])c([H])c(N([H])N([H])[H])c1[H]'],['[#7](-[#7](-[H])-[H])(-[#6]1:[#6](:[#6](:[#6](:[#6](:[#6]:1-[H])-[H])-[H])-[#8]-[#6@@](-[H])(-[H])-[H])-[H])-[H]'],"['InChI=1S/C7H10N2O/c1-10-7-4-2-3-6(5-7)9-8/h2-5,9H,8H2,1H3']",['KPIOFCJOKUHZPF-UHFFFAOYSA-N']
4methoxyphenylhydrazine_cation->neut,5.71,4-methoxylphenyl-hydrazine,doi.org/10.1002/cber.19630960121,['[H]c1c([H])c(N([H])N([H])[H])c([H])c([H])c1OC([H])([H])[H]'],['[#7](-[#7](-[H])-[H])(-[#6]1:[#6](:[#6](:[#6](:[#6](:[#6]:1-[H])-[H])-[#8]-[#6@@](-[H])(-[H])-[H])-[H])-[H])-[H]'],"['InChI=1S/C7H10N2O/c1-10-7-4-2-6(9-8)3-5-7/h2-5,9H,8H2,1H3']",['PVRSIFAEUCUJPK-UHFFFAOYSA-N']
2methoxyphenylhydrazine_cation->neut,5.53,2-methoxylphenyl-hydrazine,doi.org/10.1002/cber.19630960121,['[H]c1c([H])c([H])c(N([H])N([H])[H])c(OC([H])([H])[H])c1[H]'],['[#7](-[#7](-[H])-[H])(-[#6]1:[#6](:[#6](:[#6](:[#6](:[#6]:1-[#8]-[#6@@](-[H])(-[H])-[H])-[H])-[H])-[H])-[H])-[H]'],"['InChI=1S/C7H10N2O/c1-10-7-5-3-2-4-6(7)9-8/h2-5,9H,8H2,1H3']",['FGODPVCKFLEVFG-UHFFFAOYSA-N']
2chlorophenylhydrazine_cation->neut,4.65,2-chlorophenyl-hydrazine,doi.org/10.1002/cber.19630960121,['[H]c1c([H])c([H])c(N([H])N([H])[H])c(Cl)c1[H]'],['[#7](-[#7](-[H])-[H])(-[#6]1:[#6](:[#6](:[#6](:[#6](:[#6]:1-[#17])-[H])-[H])-[H])-[H])-[H]'],"['InChI=1S/C6H7ClN2/c7-5-3-1-2-4-6(5)9-8/h1-4,9H,8H2']",['GHGPIPTUDQZJJS-UHFFFAOYSA-N']
3chlorophenylhydrazine_cation->neut,4.78,3-chlorophenyl-hydrazine,doi.org/10.1039/J29670001233,['[H]c1c([H])c(Cl)c([H])c(N([H])N([H])[H])c1[H]'],['[#7](-[#7](-[H])-[H])(-[#6]1:[#6](:[#6](:[#6](:[#6](:[#6]:1-[H])-[#17])-[H])-[H])-[H])-[H]'],"['InChI=1S/C6H7ClN2/c7-5-2-1-3-6(4-5)9-8/h1-4,9H,8H2']",['GFPJLZASIVURDY-UHFFFAOYSA-N']
3nitrophenylhydrazine_cation->neut,4.39,3-nitrophenyl-hydrazine,doi.org/10.1002/cber.19630960121,['[H]c1c([H])c(N([H])N([H])[H])c([H])c([N+](=O)[O-])c1[H]'],['[#7](-[#7](-[H])-[H])(-[#6]1:[#6](:[#6](:[#6](:[#6](:[#6]:1-[H])-[#7+](=[#8])-[#8-])-[H])-[H])-[H])-[H]'],"['InChI=1S/C6H7N3O2/c7-8-5-2-1-3-6(4-5)9(10)11/h1-4,8H,7H2']",['JFILLLZWNHOVHV-UHFFFAOYSA-N']
2nitrophenylhydrazine_cation->neut,3.5,2-nitrophenyl-hydrazine,doi.org/10.1002/cber.19630960121,['[H]c1c([H])c([H])c([N+](=O)[O-])c(N([H])N([H])[H])c1[H]'],['[#7](-[#7](-[H])-[H])(-[#6]1:[#6](:[#6](:[#6](:[#6](:[#6]:1-[#7+](=[#8])-[#8-])-[H])-[H])-[H])-[H])-[H]'],"['InChI=1S/C6H7N3O2/c7-8-5-3-1-2-4-6(5)9(10)11/h1-4,8H,7H2']",['FRBUNLLUASHNDJ-UHFFFAOYSA-N']
3bromoophenylhydrazine_cation->neut,4.84,3-bromophenyl-hydrazine,doi.org/10.1002/cber.19630960121,['[H]c1c([H])c(Br)c([H])c(N([H])N([H])[H])c1[H]'],['[#7](-[#7](-[H])-[H])(-[#6]1:[#6](:[#6](:[#6](:[#6](:[#6]:1-[H])-[H])-[H])-[#35])-[H])-[H]'],"['InChI=1S/C6H7BrN2/c7-5-2-1-3-6(4-5)9-8/h1-4,9H,8H2']",['PESJTQQZJJTNOC-UHFFFAOYSA-N']
2bromoophenylhydrazine_cation->neut,4.54,2-bromophenyl-hydrazine,doi.org/10.1002/cber.19630960121,['[H]c1c([H])c([H])c(N([H])N([H])[H])c(Br)c1[H]'],['[#7](-[#7](-[H])-[H])(-[#6]1:[#6](:[#6](:[#6](:[#6](:[#6]:1-[#35])-[H])-[H])-[H])-[H])-[H]'],"['InChI=1S/C6H7BrN2/c7-5-3-1-2-4-6(5)9-8/h1-4,9H,8H2']",['ZWMQVBSLMQSMDH-UHFFFAOYSA-N']
12dimethyl1236tetrahydropyridazine_cation->neut,5.7,"1,2-dimethyl-1,2,3,6-tetrahydropyridazine",doi.org/10.1021/ja00227a004,['[H]C1=C([H])C([H])([H])N(C([H])([H])[H])N(C([H])([H])[H])C1([H])[H]'],['[#7]1(-[#7](-[#6@](-[#6](=[#6](-[#6@@]-1(-[H])-[H])-[H])-[H])(-[H])-[H])-[#6@](-[H])(-[H])-[H])-[#6@](-[H])(-[H])-[H]'],"['InChI=1S/C6H12N2/c1-7-5-3-4-6-8(7)2/h3-4H,5-6H2,1-2H3']",['YTOCHSMFDSTIKM-UHFFFAOYSA-N']
prop2ynylhydrazine_cation->neut,5.46,prop-2-yn-1-ylhydrazine,doi.org/10.1002/bscb.19680770509,['[H]C#CC([H])([H])N([H])N([H])[H]'],['[#7](-[#7](-[#6@](-[H])(-[H])-[#6]#[#6]-[H])-[H])(-[H])-[H]'],"['InChI=1S/C3H6N2/c1-2-3-5-4/h1,5H,3-4H2']",['CYCYZHMUOSKYBG-UHFFFAOYSA-N']
quinuclidine4amine_2cation->cation,6.74,quinuclidine-4-amine,doi.org/10.1002/hlca.19760590132,['[H]N([H])C12C([H])([H])C([H])([H])N(C([H])([H])C1([H])[H])C([H])([H])C2([H])[H]'],['[#7]12-[#6@](-[#6@@](-[#6@](-[#6@](-[#6@@]-1(-[H])-[H])(-[H])-[H])(-[#6@](-[#6@]-2(-[H])-[H])(-[H])-[H])-[#7](-[H])-[H])(-[H])-[H])(-[H])-[H]'],"['InChI=1S/C7H14N2/c8-7-1-4-9(5-2-7)6-3-7/h1-6,8H2']",['DBPHZCRAKOJSMX-UHFFFAOYSA-N']
quinuclidine4amine_cation->neut,10.14,quinuclidine-4-amine,doi.org/10.1002/qsar.19830020204,['[H]N([H])C12C([H])([H])C([H])([H])N(C([H])([H])C1([H])[H])C([H])([H])C2([H])[H]'],['[#7]12-[#6@](-[#6@@](-[#6@](-[#6@](-[#6@@]-1(-[H])-[H])(-[H])-[H])(-[#6@](-[#6@]-2(-[H])-[H])(-[H])-[H])-[#7](-[H])-[H])(-[H])-[H])(-[H])-[H]'],"['InChI=1S/C7H14N2/c8-7-1-4-9(5-2-7)6-3-7/h1-6,8H2']",['DBPHZCRAKOJSMX-UHFFFAOYSA-N']