compn,pKa,correct name,reference,smiles,smarts,inchi,inchiKey
sm6-2_neut->an,5.03,,https://pmc.ncbi.nlm.nih.gov/articles/PMC7904668/#_ad93_,c1ccc2c(c1)c(ncn2)Nc3cccc(c3)C(F)(F)F,,"InChI=1S/C15H10F3N3/c16-15(17,18)10-4-3-5-11(8-10)21-14-12-6-1-2-7-13(12)19-9-20-14/h1-9H,(H,19,20,21)ÊÊ",VCOMYMMMFREKQC-UHFFFAOYSA-NÊÊ
sm6-3_cation->neut,7.02,,https://pmc.ncbi.nlm.nih.gov/articles/PMC7904668/#_ad93_,c1ccc(cc1)Cc2nnc(s2)NC(=O)c3cccs3,,"InChI=1S/C14H11N3OS2/c18-13(11-7-4-8-19-11)15-14-17-16-12(20-14)9-10-5-2-1-3-6-10/h1-8H,9H2,(H,15,17,18)ÊÊ",IGBVONNIYTWQQL-UHFFFAOYSA-NÊ
sm6-10_cation->neut,9.02,,https://pmc.ncbi.nlm.nih.gov/articles/PMC7904668/#_ad93_,c1ccc(cc1)C(=O)NCC(=O)Nc2nc3ccccc3s2,,"InChI=1S/C16H13N3O2S/c20-14(10-17-15(21)11-6-2-1-3-7-11)19-16-18-12-8-4-5-9-13(12)22-16/h1-9H,10H2,(H,17,21)(H,18,19,20)ÊÊ",XADJPGOQPUOTJY-UHFFFAOYSA-N
sm6-19me_cation->neut,9.56,,https://pmc.ncbi.nlm.nih.gov/articles/PMC7904668/#_ad93_,CCc1cc(SC(NC(Cc2cc(Cl)c(Cl)cc2)=O)[N]3)c3cc1,,"InChI=1S/C17H15Cl2N2OS/c1-2-10-4-6-14-15(8-10)23-17(20-14)21-16(22)9-11-3-5-12(18)13(19)7-11/h3-8,17H,2,9H2,1H3,(H,21,22)",HBKYFMHOGASEDV-UHFFFAOYSA-N