compn,pKa,correct name,reference,smiles,smarts,inchi,inchiKey
sm7-28_neut->an,>12,,https://github.com/samplchallenges/SAMPL7/blob/master/physical_property/SAMPL7_molecule_ID_and_SMILES.csv,O=S(CC1(NC(C)=O)CCC2=CC=CC=C2)(C1)=O,,"InChI=1S/C13H17NO3S/c1-11(15)14-13(9-18(16,17)10-13)8-7-12-5-3-2-4-6-12/h2-6H,7-10H2,1H3,(H,14,15)",MKSKAJOWXWJALS-UHFFFAOYSA-N
sm7-33_neut->an,>12,,https://github.com/samplchallenges/SAMPL7/blob/master/physical_property/SAMPL7_molecule_ID_and_SMILES.csv,O=S(NC1(CSC1)CCC2=CC=CC=C2)(C3=CC=CC=C3)=O,,"InChI=1S/C17H19NO2S2/c19-22(20,16-9-5-2-6-10-16)18-17(13-21-14-17)12-11-15-7-3-1-4-8-15/h1-10,18H,11-14H2",LVXROOUVGDMOCN-UHFFFAOYSA-N