compn,pKa,correct name,reference,smiles,smarts,inchi,inchiKey
sm8-5_neut->an,4.23,,https://github.com/samplchallenges/SAMPL8/blob/master/physical_properties/experimental_data/SAMPL8%20-%20SiriusT3%20measurements.pdf,OC(Cc1c(Nc2c(Cl)cccc2Cl)cccc1)=O,,"InChI=1S/C14H11Cl2NO2/c15-10-5-3-6-11(16)14(10)17-12-7-2-1-4-9(12)8-13(18)19/h1-7,17H,8H2,(H,18,19)",DCOPUUMXTXDBNB-UHFFFAOYSA-N
sm8-6_neut->an,4.17,,https://link.springer.com/article/10.1007/s10822-021-00427-0,Cc1c(NCc2sc(C(O)=O)cc2)cc(Cl)cc1,,"InChI=1S/C13H12ClNO2S/c1-8-2-3-9(14)6-11(8)15-7-10-4-5-12(18-10)13(16)17/h2-6,15H,7H2,1H3,(H,16,17)",VUSFWTZXPQMGCA-UHFFFAOYSA-N
sm8-7_cation->neut,6.63,,https://link.springer.com/article/10.1007/s10822-021-00427-0,Nc(n1)n(CC2(CCOCC2)O)c3c1ccc(Br)c3,,"InChI=1S/C13H16BrN3O2/c14-9-1-2-10-11(7-9)17(12(15)16-10)8-13(18)3-5-19-6-4-13/h1-2,7,18H,3-6,8H2,(H2,15,16)",DQQJTMKHDDKOJM-UHFFFAOYSA-N
sm8-8_cation->neut,2.78,,https://link.springer.com/article/10.1007/s10822-021-00427-0,COC(c(c1)nc2n1cccc2C(F)(F)F)=O,,"InChI=1S/C10H7F3N2O2/c1-17-9(16)7-5-15-4-2-3-6(8(15)14-7)10(11,12)13/h2-5H,1H3",HHDUJZFMAASDTK-UHFFFAOYSA-N
sm8-9_cation->neut,6.08,,https://link.springer.com/article/10.1007/s10822-021-00427-0,Nc(n1)n(CC2(CCCCC2)O)c3c1ccc(Br)c3,,"InChI=1S/C14H18BrN3O/c15-10-4-5-11-12(8-10)18(13(16)17-11)9-14(19)6-2-1-3-7-14/h4-5,8,19H,1-3,6-7,9H2,(H2,16,17)",NBGDKCHTPMOGRJ-UHFFFAOYSA-N
sm8-10_cation->neut,7.71,,https://link.springer.com/article/10.1007/s10822-021-00427-0,CS(=O)(c1cc(c2ccc(CNCc3c(Cl)cccc3F)cc2)ccc1)=O,,"InChI=1S/C21H19ClFNO2S/c1-27(25,26)18-5-2-4-17(12-18)16-10-8-15(9-11-16)13-24-14-19-20(22)6-3-7-21(19)23/h2-12,24H,13-14H2,1H3",XJJYWBGEKDIJIS-UHFFFAOYSA-N
sm8-12_cation->neut,6.98,,https://link.springer.com/article/10.1007/s10822-021-00427-0,Cc1ccc(Cc2c(N3CCOCC3)nc(N)nc2)cc1,,"InChI=1S/C16H20N4O/c1-12-2-4-13(5-3-12)10-14-11-18-16(17)19-15(14)20-6-8-21-9-7-20/h2-5,11H,6-10H2,1H3,(H2,17,18,19)",HHULTXGZBWPPAF-UHFFFAOYSA-N
sm8-14_cation->neut,7.27,,https://link.springer.com/article/10.1007/s10822-021-00427-0,Cc1c(O)c(C(C)(C)C)cc(Cc2c(N)nc(N)nc2)c1,,"InChI=1S/C16H22N4O/c1-9-5-10(7-12(13(9)21)16(2,3)4)6-11-8-19-15(18)20-14(11)17/h5,7-8,21H,6H2,1-4H3,(H4,17,18,19,20)",CNXOYJDOJBIVDI-UHFFFAOYSA-N
sm8-15_cation->neut,2.54,,https://link.springer.com/article/10.1007/s10822-021-00427-0,Cc1c(Nc(nc(Cl)n2)c3c2cccc3)cccc1,,"InChI=1S/C15H12ClN3/c1-10-6-2-4-8-12(10)17-14-11-7-3-5-9-13(11)18-15(16)19-14/h2-9H,1H3,(H,17,18,19)",VLMCLFBJKWKCDN-UHFFFAOYSA-N
sm8-16_cation->neut,5.1,,https://link.springer.com/article/10.1007/s10822-021-00427-0,CC(C)(OC(NCc(n1)[nH]c2c1cccc2)=O)C,,"InChI=1S/C13H17N3O2/c1-13(2,3)18-12(17)14-8-11-15-9-6-4-5-7-10(9)16-11/h4-7H,8H2,1-3H3,(H,14,17)(H,15,16)ÊÊ",WRAOGDJKTDDORV-UHFFFAOYSA-NÊ
sm8-17_cation->neut,6.58,,https://link.springer.com/article/10.1007/s10822-021-00427-0,Nc(n1)n(CC2(CCOCC2)CO)c3c1ccc(Br)c3,,"InChI=1S/C14H18BrN3O2/c15-10-1-2-11-12(7-10)18(13(16)17-11)8-14(9-19)3-5-20-6-4-14/h1-2,7,19H,3-6,8-9H2,(H2,16,17)",DEXDPYDXXIZUFE-UHFFFAOYSA-N
sm8-18_cation->neut,2.72,,https://link.springer.com/article/10.1007/s10822-021-00427-0,COc1c(OC)cc(Nc(nc(Cl)n2)c3c2cccc3)cc1,,"InChI=1S/C16H14ClN3O2/c1-21-13-8-7-10(9-14(13)22-2)18-15-11-5-3-4-6-12(11)19-16(17)20-15/h3-9H,1-2H3,(H,18,19,20)",VYQOQVFRTFZOKI-UHFFFAOYSA-N
sm8-19_cation->neut,4.93,,https://link.springer.com/article/10.1007/s10822-021-00427-0,COC1=NC=C(CC2=CN=C(NC2=O)SCC3=NC4=C(N3C)C=CC=C4)C=N1,,"InChI=1S/C19H18N6O2S/c1-25-15-6-4-3-5-14(15)23-16(25)11-28-19-22-10-13(17(26)24-19)7-12-8-20-18(27-2)21-9-12/h3-6,8-10H,7,11H2,1-2H3,(H,22,24,26)",XSAINYBPLYBYDD-UHFFFAOYSA-N
sm8-19_neut->an,6.99,,https://link.springer.com/article/10.1007/s10822-021-00427-0,COC1=NC=C(CC2=CN=C(NC2=O)SCC3=NC4=C(N3C)C=CC=C4)C=N1,,"InChI=1S/C19H18N6O2S/c1-25-15-6-4-3-5-14(15)23-16(25)11-28-19-22-10-13(17(26)24-19)7-12-8-20-18(27-2)21-9-12/h3-6,8-10H,7,11H2,1-2H3,(H,22,24,26)",XSAINYBPLYBYDD-UHFFFAOYSA-N
sm8-20_cation->neut,2.44,,https://link.springer.com/article/10.1007/s10822-021-00427-0,NC1=NNC2=C1C=C(Cl)C(C3=CC=CC=C3)=N2,,"InChI=1S/C12H9ClN4/c13-9-6-8-11(14)16-17-12(8)15-10(9)7-4-2-1-3-5-7/h1-6H,(H3,14,15,16,17)",AHZYOIVYZHOXBU-UHFFFAOYSA-N
sm8-20_neut->an,11.44,,https://link.springer.com/article/10.1007/s10822-021-00427-0,COc1c(O)c(OC)cc(Cc2c(OC)nc(N)nc2N)c1,,"InChI=1S/C14H18N4O4/c1-20-9-5-7(6-10(21-2)11(9)19)4-8-12(15)17-14(16)18-13(8)22-3/h5-6,19H,4H2,1-3H3,(H4,15,16,17,18)",KURIUXFGDYETDJ-UHFFFAOYSA-N
sm8-21_cation->neut,5.38,,https://link.springer.com/article/10.1007/s10822-021-00427-0,COc1c(O)c(OC)cc(Cc2c(OC)nc(N)nc2N)c1,,"InChI=1S/C14H18N4O4/c1-20-9-5-7(6-10(21-2)11(9)19)4-8-12(15)17-14(16)18-13(8)22-3/h5-6,19H,4H2,1-3H3,(H4,15,16,17,18)",KURIUXFGDYETDJ-UHFFFAOYSA-N
sm8-22_cation->neut,2.57,,https://link.springer.com/article/10.1007/s10822-021-00427-0,COc(c1)c(OC)cc2c1nc(Cl)nc2N,,"InChI=1S/C10H10ClN3O2/c1-15-7-3-5-6(4-8(7)16-2)13-10(11)14-9(5)12/h3-4H,1-2H3,(H2,12,13,14)",HWIIAAVGRHKSOJ-UHFFFAOYSA-N
sm8-23_cation->neut,2.65,,https://link.springer.com/article/10.1007/s10822-021-00427-0,Cc(n1)sc2c1cc(O)cc2,,"InChI=1S/C8H7NOS/c1-5-9-7-4-6(10)2-3-8(7)11-5/h2-4,10H,1H3",LAKVUPMDDFICNR-UHFFFAOYSA-N
sm8-23_neut->an,9.02,,https://link.springer.com/article/10.1007/s10822-021-00427-0,Cc(n1)sc2c1cc(O)cc2,,"InChI=1S/C8H7NOS/c1-5-9-7-4-6(10)2-3-8(7)11-5/h2-4,10H,1H3",LAKVUPMDDFICNR-UHFFFAOYSA-N