compn,pKa,correct name,reference,smiles,smarts,inchi,inchiKey
sm8-1_cation->neut,2.54,,https://link.springer.com/article/10.1007/s10822-021-00427-0,OC(c1c(Nc2cc(C(F)(F)F)ccc2)cccc1)=O,,"InChI=1S/C14H10F3NO2/c15-14(16,17)9-4-3-5-10(8-9)18-12-7-2-1-6-11(12)13(19)20/h1-8,18H,(H,19,20)",LPEPZBJOKDYZAD-UHFFFAOYSA-N
sm8-1_neut->an,5.01,,https://link.springer.com/article/10.1007/s10822-021-00427-0,OC(c1c(Nc2cc(C(F)(F)F)ccc2)cccc1)=O,,"InChI=1S/C14H10F3NO2/c15-14(16,17)9-4-3-5-10(8-9)18-12-7-2-1-6-11(12)13(19)20/h1-8,18H,(H,19,20)",LPEPZBJOKDYZAD-UHFFFAOYSA-N
sm8-2_neut->an,4.41,,https://link.springer.com/article/10.1007/s10822-021-00427-0,CS(=O)(c1ccc(CCC(O)=O)cc1)=O,,"InChI=1S/C10H12O4S/c1-15(13,14)9-5-2-8(3-6-9)4-7-10(11)12/h2-3,5-6H,4,7H2,1H3,(H,11,12)",ZZZBVBATZOAPQB-UHFFFAOYSA-N
sm8-5_neut->an,3.92,,https://link.springer.com/article/10.1007/s10822-021-00427-0,OC(Cc1c(Nc2c(Cl)cccc2Cl)cccc1)=O,,"InChI=1S/C14H11Cl2NO2/c15-10-5-3-6-11(16)14(10)17-12-7-2-1-4-9(12)8-13(18)19/h1-7,17H,8H2,(H,18,19)",DCOPUUMXTXDBNB-UHFFFAOYSA-N
sm8-21_neut->an,11.44,,https://link.springer.com/article/10.1007/s10822-021-00427-0,COc1c(O)c(OC)cc(Cc2c(OC)nc(N)nc2N)c1,,"InChI=1S/C14H18N4O4/c1-20-9-5-7(6-10(21-2)11(9)19)4-8-12(15)17-14(16)18-13(8)22-3/h5-6,19H,4H2,1-3H3,(H4,15,16,17,18)",KURIUXFGDYETDJ-UHFFFAOYSA-N
sm8-22_cation->neut,3.36,,https://link.springer.com/article/10.1007/s10822-021-00427-0,COc(c1)c(OC)cc2c1nc(Cl)nc2N,,"InChI=1S/C10H10ClN3O2/c1-15-7-3-5-6(4-8(7)16-2)13-10(11)14-9(5)12/h3-4H,1-2H3,(H2,12,13,14)",HWIIAAVGRHKSOJ-UHFFFAOYSA-N